REMARK SMILES O=[N+]([O-])c1ccccc1C=Nc1ccc(O)cc1
REMARK SMILES IDX 11 1 10 2 12 3 15 4 14 5 17 6 13 7 18 8 16 9 9 11 4 12 8 13
REMARK SMILES IDX 5 14 7 15 6 16 2 17 1 18 3 19
REMARK H PARENT 16 10
ROOT
ATOM      1  N   UNL     1      -0.411  -0.866  -0.104  1.00  0.00    -0.256 NA
ATOM      2  C   UNL     1       0.434   0.086   0.146  1.00  0.00    +0.127 C 
ENDROOT
BRANCH   1   3
ATOM      3  C   UNL     1      -1.754  -0.584   0.183  1.00  0.00    +0.063 A 
ATOM      4  C   UNL     1      -4.432  -0.055   0.750  1.00  0.00    +0.115 A 
ATOM      5  C   UNL     1      -3.653  -0.735   1.679  1.00  0.00    +0.048 A 
ATOM      6  C   UNL     1      -3.895   0.357  -0.466  1.00  0.00    +0.048 A 
ATOM      7  C   UNL     1      -2.314  -1.003   1.392  1.00  0.00    +0.032 A 
ATOM      8  C   UNL     1      -2.554   0.085  -0.748  1.00  0.00    +0.032 A 
BRANCH   4   9
ATOM      9  O   UNL     1      -5.735   0.187   1.069  1.00  0.00    -0.508 OA
ATOM     10  H   UNL     1      -6.153   0.657   0.329  1.00  0.00    +0.293 HD
ENDBRANCH   4   9
ENDBRANCH   1   3
BRANCH   2  11
ATOM     11  C   UNL     1       1.884  -0.087  -0.106  1.00  0.00    +0.071 A 
ATOM     12  C   UNL     1       2.813   0.943   0.066  1.00  0.00    +0.278 A 
ATOM     13  C   UNL     1       2.357  -1.347  -0.503  1.00  0.00    +0.017 A 
ATOM     14  C   UNL     1       4.187   0.736  -0.131  1.00  0.00    +0.086 A 
ATOM     15  C   UNL     1       3.724  -1.562  -0.710  1.00  0.00    +0.001 A 
ATOM     16  C   UNL     1       4.638  -0.524  -0.521  1.00  0.00    +0.007 A 
BRANCH  12  17
ATOM     17  N   UNL     1       2.390   2.276   0.435  1.00  0.00    +0.063 N 
ATOM     18  O   UNL     1       1.599   2.850  -0.324  1.00  0.00    -0.258 OA
ATOM     19  O   UNL     1       2.865   2.748   1.475  1.00  0.00    -0.258 OA
ENDBRANCH  12  17
ENDBRANCH   2  11
TORSDOF 4
