REMARK SMILES O=C1C(Cl)=C(Cl)C(=O)c2ccccc21
REMARK SMILES IDX 6 1 5 2 3 3 4 4 2 5 1 6 14 7 9 8 10 9 11 10 12 11 13 12 7 13
REMARK SMILES IDX 8 14
REMARK H PARENT
ROOT
ATOM      1 Cl   UNL     1       3.769  -1.897  -0.150  1.00  0.00    -0.078 Cl
ATOM      2  C   UNL     1       2.388  -0.851  -0.081  1.00  0.00    +0.111 C 
ATOM      3  C   UNL     1       2.490   0.483  -0.030  1.00  0.00    +0.111 C 
ATOM      4 Cl   UNL     1       4.014   1.310  -0.028  1.00  0.00    -0.078 Cl
ATOM      5  C   UNL     1       1.285   1.353   0.028  1.00  0.00    +0.206 C 
ATOM      6  O   UNL     1       1.357   2.576   0.075  1.00  0.00    -0.288 OA
ATOM      7  C   UNL     1      -0.037   0.700   0.029  1.00  0.00    +0.035 A 
ATOM      8  C   UNL     1      -0.142  -0.686  -0.024  1.00  0.00    +0.035 A 
ATOM      9  C   UNL     1      -1.408  -1.291  -0.023  1.00  0.00    +0.013 A 
ATOM     10  C   UNL     1      -2.560  -0.505   0.031  1.00  0.00    +0.001 A 
ATOM     11  C   UNL     1      -2.454   0.883   0.084  1.00  0.00    +0.001 A 
ATOM     12  C   UNL     1      -1.196   1.487   0.083  1.00  0.00    +0.013 A 
ATOM     13  C   UNL     1       1.065  -1.530  -0.082  1.00  0.00    +0.206 C 
ATOM     14  O   UNL     1       0.951  -2.750  -0.128  1.00  0.00    -0.288 OA
ENDROOT
TORSDOF 0
