MODEL 1
REMARK VINA RESULT:    -8.819      0.000      0.000
REMARK INTER + INTRA:         -11.965
REMARK INTER:                 -11.396
REMARK INTRA:                  -0.569
REMARK UNBOUND:                -0.569
REMARK SMILES N=C(NN=Cc1ccccc1[N+](=O)[O-])NN(O)O
REMARK SMILES IDX 15 1 2 2 1 3 3 4 16 8 17 9 18 11 4 13 5 14 6 15 11 16 7 17
REMARK SMILES IDX 10 18 8 19 9 20 12 21 13 22 14 23
REMARK H PARENT 15 5 1 6 3 7 17 10 18 12
ROOT
ATOM      1  N   UNL     1     -26.713   4.806   8.855  1.00  0.00    -0.240 N 
ATOM      2  C   UNL     1     -26.647   6.008   8.179  1.00  0.00    +0.227 C 
ATOM      3  N   UNL     1     -25.635   6.359   7.449  1.00  0.00    -0.267 NA
ATOM      4  N   UNL     1     -27.793   6.757   8.314  1.00  0.00    -0.246 N 
ATOM      5  H   UNL     1     -27.141   4.907   9.772  1.00  0.00    +0.190 HD
ATOM      6  H   UNL     1     -24.943   5.607   7.553  1.00  0.00    +0.191 HD
ATOM      7  H   UNL     1     -28.568   6.311   8.792  1.00  0.00    +0.193 HD
ENDROOT
BRANCH   1   8
ATOM      8  N   UNL     1     -25.540   4.058   8.912  1.00  0.00    +0.033 NA
BRANCH   8   9
ATOM      9  O   UNL     1     -25.837   2.677   9.213  1.00  0.00    -0.271 OA
ATOM     10  H   UNL     1     -25.013   2.258   8.910  1.00  0.00    +0.243 HD
ENDBRANCH   8   9
BRANCH   8  11
ATOM     11  O   UNL     1     -24.708   4.548   9.985  1.00  0.00    -0.271 OA
ATOM     12  H   UNL     1     -25.354   5.119  10.440  1.00  0.00    +0.243 HD
ENDBRANCH   8  11
ENDBRANCH   1   8
BRANCH   4  13
ATOM     13  N   UNL     1     -27.859   8.099   8.093  1.00  0.00    -0.180 NA
ATOM     14  C   UNL     1     -28.464   8.443   7.006  1.00  0.00    +0.148 C 
BRANCH  14  15
ATOM     15  C   UNL     1     -28.615   9.862   6.652  1.00  0.00    +0.072 A 
ATOM     16  C   UNL     1     -27.746  10.540   5.794  1.00  0.00    +0.278 A 
ATOM     17  C   UNL     1     -29.723  10.539   7.176  1.00  0.00    +0.017 A 
ATOM     18  C   UNL     1     -27.984  11.871   5.427  1.00  0.00    +0.086 A 
ATOM     19  C   UNL     1     -29.964  11.869   6.817  1.00  0.00    +0.001 A 
ATOM     20  C   UNL     1     -29.102  12.531   5.938  1.00  0.00    +0.007 A 
BRANCH  16  21
ATOM     21  N   UNL     1     -26.499   9.934   5.359  1.00  0.00    +0.063 N 
ATOM     22  O   UNL     1     -25.478  10.236   5.995  1.00  0.00    -0.258 OA
ATOM     23  O   UNL     1     -26.531   9.255   4.325  1.00  0.00    -0.258 OA
ENDBRANCH  16  21
ENDBRANCH  14  15
ENDBRANCH   4  13
TORSDOF 6
ENDMDL
MODEL 2
REMARK VINA RESULT:    -8.161      2.260      2.587
REMARK INTER + INTRA:         -11.116
REMARK INTER:                 -10.653
REMARK INTRA:                  -0.462
REMARK UNBOUND:                -0.569
REMARK SMILES N=C(NN=Cc1ccccc1[N+](=O)[O-])NN(O)O
REMARK SMILES IDX 15 1 2 2 1 3 3 4 16 8 17 9 18 11 4 13 5 14 6 15 11 16 7 17
REMARK SMILES IDX 10 18 8 19 9 20 12 21 13 22 14 23
REMARK H PARENT 15 5 1 6 3 7 17 10 18 12
ROOT
ATOM      1  N   UNL     1     -26.897   5.489   9.217  1.00  0.00    -0.240 N 
ATOM      2  C   UNL     1     -26.620   6.233   8.088  1.00  0.00    +0.227 C 
ATOM      3  N   UNL     1     -25.536   6.090   7.390  1.00  0.00    -0.267 NA
ATOM      4  N   UNL     1     -27.643   7.090   7.752  1.00  0.00    -0.246 N 
ATOM      5  H   UNL     1     -27.343   6.047   9.941  1.00  0.00    +0.190 HD
ATOM      6  H   UNL     1     -24.973   5.393   7.892  1.00  0.00    +0.191 HD
ATOM      7  H   UNL     1     -28.496   7.007   8.293  1.00  0.00    +0.193 HD
ENDROOT
BRANCH   1   8
ATOM      8  N   UNL     1     -25.857   4.717   9.726  1.00  0.00    +0.033 NA
BRANCH   8   9
ATOM      9  O   UNL     1     -25.753   3.471   9.002  1.00  0.00    -0.271 OA
ATOM     10  H   UNL     1     -26.381   3.645   8.279  1.00  0.00    +0.243 HD
ENDBRANCH   8   9
BRANCH   8  11
ATOM     11  O   UNL     1     -26.139   4.377  11.100  1.00  0.00    -0.271 OA
ATOM     12  H   UNL     1     -25.823   5.190  11.535  1.00  0.00    +0.243 HD
ENDBRANCH   8  11
ENDBRANCH   1   8
BRANCH   4  13
ATOM     13  N   UNL     1     -27.493   8.181   6.951  1.00  0.00    -0.180 NA
ATOM     14  C   UNL     1     -28.242   9.187   7.254  1.00  0.00    +0.148 C 
BRANCH  14  15
ATOM     15  C   UNL     1     -28.171  10.433   6.475  1.00  0.00    +0.072 A 
ATOM     16  C   UNL     1     -29.200  11.376   6.436  1.00  0.00    +0.278 A 
ATOM     17  C   UNL     1     -26.982  10.689   5.782  1.00  0.00    +0.017 A 
ATOM     18  C   UNL     1     -29.047  12.585   5.742  1.00  0.00    +0.086 A 
ATOM     19  C   UNL     1     -26.824  11.891   5.085  1.00  0.00    +0.001 A 
ATOM     20  C   UNL     1     -27.850  12.840   5.072  1.00  0.00    +0.007 A 
BRANCH  16  21
ATOM     21  N   UNL     1     -30.508  11.084   6.998  1.00  0.00    +0.063 N 
ATOM     22  O   UNL     1     -30.790  11.633   8.074  1.00  0.00    -0.258 OA
ATOM     23  O   UNL     1     -31.193  10.230   6.421  1.00  0.00    -0.258 OA
ENDBRANCH  16  21
ENDBRANCH  14  15
ENDBRANCH   4  13
TORSDOF 6
ENDMDL
MODEL 3
REMARK VINA RESULT:    -8.064      4.091      5.142
REMARK INTER + INTRA:         -10.989
REMARK INTER:                 -10.510
REMARK INTRA:                  -0.480
REMARK UNBOUND:                -0.569
REMARK SMILES N=C(NN=Cc1ccccc1[N+](=O)[O-])NN(O)O
REMARK SMILES IDX 15 1 2 2 1 3 3 4 16 8 17 9 18 11 4 13 5 14 6 15 11 16 7 17
REMARK SMILES IDX 10 18 8 19 9 20 12 21 13 22 14 23
REMARK H PARENT 15 5 1 6 3 7 17 10 18 12
ROOT
ATOM      1  N   UNL     1     -32.646   6.600   7.350  1.00  0.00    -0.240 N 
ATOM      2  C   UNL     1     -32.352   7.949   7.370  1.00  0.00    +0.227 C 
ATOM      3  N   UNL     1     -33.255   8.872   7.479  1.00  0.00    -0.267 NA
ATOM      4  N   UNL     1     -30.999   8.198   7.327  1.00  0.00    -0.246 N 
ATOM      5  H   UNL     1     -32.062   6.092   6.690  1.00  0.00    +0.190 HD
ATOM      6  H   UNL     1     -34.157   8.380   7.480  1.00  0.00    +0.191 HD
ATOM      7  H   UNL     1     -30.390   7.390   7.389  1.00  0.00    +0.193 HD
ENDROOT
BRANCH   1   8
ATOM      8  N   UNL     1     -33.989   6.256   7.224  1.00  0.00    +0.033 NA
BRANCH   8   9
ATOM      9  O   UNL     1     -34.534   6.792   5.999  1.00  0.00    -0.271 OA
ATOM     10  H   UNL     1     -33.717   7.113   5.578  1.00  0.00    +0.243 HD
ENDBRANCH   8   9
BRANCH   8  11
ATOM     11  O   UNL     1     -34.740   6.847   8.307  1.00  0.00    -0.271 OA
ATOM     12  H   UNL     1     -35.335   7.423   7.793  1.00  0.00    +0.243 HD
ENDBRANCH   8  11
ENDBRANCH   1   8
BRANCH   4  13
ATOM     13  N   UNL     1     -30.454   9.388   6.953  1.00  0.00    -0.180 NA
ATOM     14  C   UNL     1     -29.210   9.334   6.610  1.00  0.00    +0.148 C 
BRANCH  14  15
ATOM     15  C   UNL     1     -28.502  10.547   6.173  1.00  0.00    +0.072 A 
ATOM     16  C   UNL     1     -27.155  10.562   5.806  1.00  0.00    +0.278 A 
ATOM     17  C   UNL     1     -29.249  11.727   6.081  1.00  0.00    +0.017 A 
ATOM     18  C   UNL     1     -26.551  11.730   5.320  1.00  0.00    +0.086 A 
ATOM     19  C   UNL     1     -28.652  12.897   5.600  1.00  0.00    +0.001 A 
ATOM     20  C   UNL     1     -27.309  12.896   5.213  1.00  0.00    +0.007 A 
BRANCH  16  21
ATOM     21  N   UNL     1     -26.301   9.410   6.040  1.00  0.00    +0.063 N 
ATOM     22  O   UNL     1     -25.918   9.223   7.205  1.00  0.00    -0.258 OA
ATOM     23  O   UNL     1     -25.931   8.770   5.047  1.00  0.00    -0.258 OA
ENDBRANCH  16  21
ENDBRANCH  14  15
ENDBRANCH   4  13
TORSDOF 6
ENDMDL
MODEL 4
REMARK VINA RESULT:    -7.477      9.032     10.596
REMARK INTER + INTRA:         -10.232
REMARK INTER:                  -9.590
REMARK INTRA:                  -0.642
REMARK UNBOUND:                -0.569
REMARK SMILES N=C(NN=Cc1ccccc1[N+](=O)[O-])NN(O)O
REMARK SMILES IDX 15 1 2 2 1 3 3 4 16 8 17 9 18 11 4 13 5 14 6 15 11 16 7 17
REMARK SMILES IDX 10 18 8 19 9 20 12 21 13 22 14 23
REMARK H PARENT 15 5 1 6 3 7 17 10 18 12
ROOT
ATOM      1  N   UNL     1     -32.294   7.513   7.870  1.00  0.00    -0.240 N 
ATOM      2  C   UNL     1     -33.432   6.753   7.688  1.00  0.00    +0.227 C 
ATOM      3  N   UNL     1     -34.435   7.137   6.962  1.00  0.00    -0.267 NA
ATOM      4  N   UNL     1     -33.356   5.526   8.306  1.00  0.00    -0.246 N 
ATOM      5  H   UNL     1     -31.942   7.451   8.823  1.00  0.00    +0.190 HD
ATOM      6  H   UNL     1     -34.202   8.086   6.646  1.00  0.00    +0.191 HD
ATOM      7  H   UNL     1     -32.463   5.286   8.723  1.00  0.00    +0.193 HD
ENDROOT
BRANCH   1   8
ATOM      8  N   UNL     1     -32.344   8.829   7.422  1.00  0.00    +0.033 NA
BRANCH   8   9
ATOM      9  O   UNL     1     -33.518   9.493   7.938  1.00  0.00    -0.271 OA
ATOM     10  H   UNL     1     -33.546   9.113   8.833  1.00  0.00    +0.243 HD
ENDBRANCH   8   9
BRANCH   8  11
ATOM     11  O   UNL     1     -32.458   8.843   5.983  1.00  0.00    -0.271 OA
ATOM     12  H   UNL     1     -31.517   8.938   5.748  1.00  0.00    +0.243 HD
ENDBRANCH   8  11
ENDBRANCH   1   8
BRANCH   4  13
ATOM     13  N   UNL     1     -34.437   4.758   8.615  1.00  0.00    -0.180 NA
ATOM     14  C   UNL     1     -34.952   4.984   9.777  1.00  0.00    +0.148 C 
BRANCH  14  15
ATOM     15  C   UNL     1     -36.132   4.231  10.231  1.00  0.00    +0.072 A 
ATOM     16  C   UNL     1     -37.418   4.773  10.284  1.00  0.00    +0.278 A 
ATOM     17  C   UNL     1     -35.940   2.888  10.577  1.00  0.00    +0.017 A 
ATOM     18  C   UNL     1     -38.520   3.986  10.647  1.00  0.00    +0.086 A 
ATOM     19  C   UNL     1     -37.035   2.099  10.944  1.00  0.00    +0.001 A 
ATOM     20  C   UNL     1     -38.322   2.643  10.971  1.00  0.00    +0.007 A 
BRANCH  16  21
ATOM     21  N   UNL     1     -37.640   6.196  10.095  1.00  0.00    +0.063 N 
ATOM     22  O   UNL     1     -37.942   6.569   8.951  1.00  0.00    -0.258 OA
ATOM     23  O   UNL     1     -37.406   6.938  11.058  1.00  0.00    -0.258 OA
ENDBRANCH  16  21
ENDBRANCH  14  15
ENDBRANCH   4  13
TORSDOF 6
ENDMDL
MODEL 5
REMARK VINA RESULT:    -7.346      1.624      1.976
REMARK INTER + INTRA:         -10.062
REMARK INTER:                  -9.806
REMARK INTRA:                  -0.255
REMARK UNBOUND:                -0.569
REMARK SMILES N=C(NN=Cc1ccccc1[N+](=O)[O-])NN(O)O
REMARK SMILES IDX 15 1 2 2 1 3 3 4 16 8 17 9 18 11 4 13 5 14 6 15 11 16 7 17
REMARK SMILES IDX 10 18 8 19 9 20 12 21 13 22 14 23
REMARK H PARENT 15 5 1 6 3 7 17 10 18 12
ROOT
ATOM      1  N   UNL     1     -27.092   3.942   9.131  1.00  0.00    -0.240 N 
ATOM      2  C   UNL     1     -26.685   5.066   8.442  1.00  0.00    +0.227 C 
ATOM      3  N   UNL     1     -25.559   5.141   7.804  1.00  0.00    -0.267 NA
ATOM      4  N   UNL     1     -27.631   6.066   8.451  1.00  0.00    -0.246 N 
ATOM      5  H   UNL     1     -27.564   4.178  10.001  1.00  0.00    +0.190 HD
ATOM      6  H   UNL     1     -25.076   4.253   7.989  1.00  0.00    +0.191 HD
ATOM      7  H   UNL     1     -28.528   5.833   8.861  1.00  0.00    +0.193 HD
ENDROOT
BRANCH   1   8
ATOM      8  N   UNL     1     -26.139   2.944   9.315  1.00  0.00    +0.033 NA
BRANCH   8   9
ATOM      9  O   UNL     1     -26.517   1.748   8.599  1.00  0.00    -0.271 OA
ATOM     10  H   UNL     1     -26.020   1.084   9.109  1.00  0.00    +0.243 HD
ENDBRANCH   8   9
BRANCH   8  11
ATOM     11  O   UNL     1     -26.077   2.589  10.713  1.00  0.00    -0.271 OA
ATOM     12  H   UNL     1     -26.822   3.123  11.047  1.00  0.00    +0.243 HD
ENDBRANCH   8  11
ENDBRANCH   1   8
BRANCH   4  13
ATOM     13  N   UNL     1     -27.359   7.376   8.198  1.00  0.00    -0.180 NA
ATOM     14  C   UNL     1     -27.489   7.731   6.964  1.00  0.00    +0.148 C 
BRANCH  14  15
ATOM     15  C   UNL     1     -27.237   9.122   6.556  1.00  0.00    +0.072 A 
ATOM     16  C   UNL     1     -25.959   9.640   6.335  1.00  0.00    +0.278 A 
ATOM     17  C   UNL     1     -28.353   9.938   6.337  1.00  0.00    +0.017 A 
ATOM     18  C   UNL     1     -25.780  10.950   5.868  1.00  0.00    +0.086 A 
ATOM     19  C   UNL     1     -28.182  11.247   5.875  1.00  0.00    +0.001 A 
ATOM     20  C   UNL     1     -26.900  11.749   5.633  1.00  0.00    +0.007 A 
BRANCH  16  21
ATOM     21  N   UNL     1     -24.771   8.890   6.705  1.00  0.00    +0.063 N 
ATOM     22  O   UNL     1     -24.210   8.249   5.803  1.00  0.00    -0.258 OA
ATOM     23  O   UNL     1     -24.473   8.859   7.906  1.00  0.00    -0.258 OA
ENDBRANCH  16  21
ENDBRANCH  14  15
ENDBRANCH   4  13
TORSDOF 6
ENDMDL
MODEL 6
REMARK VINA RESULT:    -7.245      1.972      2.743
REMARK INTER + INTRA:          -9.931
REMARK INTER:                  -9.864
REMARK INTRA:                  -0.067
REMARK UNBOUND:                -0.569
REMARK SMILES N=C(NN=Cc1ccccc1[N+](=O)[O-])NN(O)O
REMARK SMILES IDX 15 1 2 2 1 3 3 4 16 8 17 9 18 11 4 13 5 14 6 15 11 16 7 17
REMARK SMILES IDX 10 18 8 19 9 20 12 21 13 22 14 23
REMARK H PARENT 15 5 1 6 3 7 17 10 18 12
ROOT
ATOM      1  N   UNL     1     -25.145   4.354   8.448  1.00  0.00    -0.240 N 
ATOM      2  C   UNL     1     -25.819   5.541   8.237  1.00  0.00    +0.227 C 
ATOM      3  N   UNL     1     -26.842   5.913   8.941  1.00  0.00    -0.267 NA
ATOM      4  N   UNL     1     -25.247   6.307   7.247  1.00  0.00    -0.246 N 
ATOM      5  H   UNL     1     -24.862   3.916   7.575  1.00  0.00    +0.190 HD
ATOM      6  H   UNL     1     -27.032   5.137   9.586  1.00  0.00    +0.191 HD
ATOM      7  H   UNL     1     -24.367   5.972   6.870  1.00  0.00    +0.193 HD
ENDROOT
BRANCH   1   8
ATOM      8  N   UNL     1     -25.744   3.443   9.314  1.00  0.00    +0.033 NA
BRANCH   8   9
ATOM      9  O   UNL     1     -24.914   2.271   9.466  1.00  0.00    -0.271 OA
ATOM     10  H   UNL     1     -25.458   1.760  10.090  1.00  0.00    +0.243 HD
ENDBRANCH   8   9
BRANCH   8  11
ATOM     11  O   UNL     1     -26.996   2.996   8.750  1.00  0.00    -0.271 OA
ATOM     12  H   UNL     1     -26.807   3.141   7.805  1.00  0.00    +0.243 HD
ENDBRANCH   8  11
ENDBRANCH   1   8
BRANCH   4  13
ATOM     13  N   UNL     1     -25.895   7.302   6.582  1.00  0.00    -0.180 NA
ATOM     14  C   UNL     1     -25.838   8.462   7.146  1.00  0.00    +0.148 C 
BRANCH  14  15
ATOM     15  C   UNL     1     -26.487   9.627   6.526  1.00  0.00    +0.072 A 
ATOM     16  C   UNL     1     -27.855   9.891   6.626  1.00  0.00    +0.278 A 
ATOM     17  C   UNL     1     -25.664  10.532   5.845  1.00  0.00    +0.017 A 
ATOM     18  C   UNL     1     -28.408  11.060   6.084  1.00  0.00    +0.086 A 
ATOM     19  C   UNL     1     -26.210  11.698   5.299  1.00  0.00    +0.001 A 
ATOM     20  C   UNL     1     -27.576  11.966   5.425  1.00  0.00    +0.007 A 
BRANCH  16  21
ATOM     21  N   UNL     1     -28.771   8.906   7.175  1.00  0.00    +0.063 N 
ATOM     22  O   UNL     1     -29.870   8.788   6.612  1.00  0.00    -0.258 OA
ATOM     23  O   UNL     1     -28.432   8.341   8.223  1.00  0.00    -0.258 OA
ENDBRANCH  16  21
ENDBRANCH  14  15
ENDBRANCH   4  13
TORSDOF 6
ENDMDL
MODEL 7
REMARK VINA RESULT:    -7.173      9.034     11.119
REMARK INTER + INTRA:          -9.839
REMARK INTER:                  -9.169
REMARK INTRA:                  -0.670
REMARK UNBOUND:                -0.569
REMARK SMILES N=C(NN=Cc1ccccc1[N+](=O)[O-])NN(O)O
REMARK SMILES IDX 15 1 2 2 1 3 3 4 16 8 17 9 18 11 4 13 5 14 6 15 11 16 7 17
REMARK SMILES IDX 10 18 8 19 9 20 12 21 13 22 14 23
REMARK H PARENT 15 5 1 6 3 7 17 10 18 12
ROOT
ATOM      1  N   UNL     1     -23.999   0.856  10.834  1.00  0.00    -0.240 N 
ATOM      2  C   UNL     1     -25.011   0.113  10.259  1.00  0.00    +0.227 C 
ATOM      3  N   UNL     1     -25.294   0.155   8.994  1.00  0.00    -0.267 NA
ATOM      4  N   UNL     1     -25.636  -0.718  11.159  1.00  0.00    -0.246 N 
ATOM      5  H   UNL     1     -24.261   1.214  11.749  1.00  0.00    +0.190 HD
ATOM      6  H   UNL     1     -24.669   0.865   8.594  1.00  0.00    +0.191 HD
ATOM      7  H   UNL     1     -25.230  -0.765  12.087  1.00  0.00    +0.193 HD
ENDROOT
BRANCH   1   8
ATOM      8  N   UNL     1     -23.421   1.842  10.039  1.00  0.00    +0.033 NA
BRANCH   8   9
ATOM      9  O   UNL     1     -24.437   2.710   9.493  1.00  0.00    -0.271 OA
ATOM     10  H   UNL     1     -25.196   2.446  10.042  1.00  0.00    +0.243 HD
ENDBRANCH   8   9
BRANCH   8  11
ATOM     11  O   UNL     1     -22.754   1.226   8.917  1.00  0.00    -0.271 OA
ATOM     12  H   UNL     1     -22.060   1.892   8.757  1.00  0.00    +0.243 HD
ENDBRANCH   8  11
ENDBRANCH   1   8
BRANCH   4  13
ATOM     13  N   UNL     1     -26.874  -1.253  10.971  1.00  0.00    -0.180 NA
ATOM     14  C   UNL     1     -27.853  -0.525  11.393  1.00  0.00    +0.148 C 
BRANCH  14  15
ATOM     15  C   UNL     1     -29.243  -0.980  11.241  1.00  0.00    +0.072 A 
ATOM     16  C   UNL     1     -29.927  -1.706  12.219  1.00  0.00    +0.278 A 
ATOM     17  C   UNL     1     -29.913  -0.615  10.067  1.00  0.00    +0.017 A 
ATOM     18  C   UNL     1     -31.278  -2.045  12.056  1.00  0.00    +0.086 A 
ATOM     19  C   UNL     1     -31.259  -0.952   9.897  1.00  0.00    +0.001 A 
ATOM     20  C   UNL     1     -31.942  -1.658  10.891  1.00  0.00    +0.007 A 
BRANCH  16  21
ATOM     21  N   UNL     1     -29.233  -2.249  13.373  1.00  0.00    +0.063 N 
ATOM     22  O   UNL     1     -28.754  -3.387  13.255  1.00  0.00    -0.258 OA
ATOM     23  O   UNL     1     -29.265  -1.584  14.417  1.00  0.00    -0.258 OA
ENDBRANCH  16  21
ENDBRANCH  14  15
ENDBRANCH   4  13
TORSDOF 6
ENDMDL
MODEL 8
REMARK VINA RESULT:    -7.161      7.785     10.121
REMARK INTER + INTRA:          -9.823
REMARK INTER:                  -9.275
REMARK INTRA:                  -0.548
REMARK UNBOUND:                -0.569
REMARK SMILES N=C(NN=Cc1ccccc1[N+](=O)[O-])NN(O)O
REMARK SMILES IDX 15 1 2 2 1 3 3 4 16 8 17 9 18 11 4 13 5 14 6 15 11 16 7 17
REMARK SMILES IDX 10 18 8 19 9 20 12 21 13 22 14 23
REMARK H PARENT 15 5 1 6 3 7 17 10 18 12
ROOT
ATOM      1  N   UNL     1     -29.651  -0.189  14.803  1.00  0.00    -0.240 N 
ATOM      2  C   UNL     1     -28.315  -0.355  14.495  1.00  0.00    +0.227 C 
ATOM      3  N   UNL     1     -27.385  -0.456  15.392  1.00  0.00    -0.267 NA
ATOM      4  N   UNL     1     -28.093  -0.467  13.141  1.00  0.00    -0.246 N 
ATOM      5  H   UNL     1     -30.113   0.453  14.164  1.00  0.00    +0.190 HD
ATOM      6  H   UNL     1     -27.856  -0.326  16.296  1.00  0.00    +0.191 HD
ATOM      7  H   UNL     1     -28.916  -0.516  12.552  1.00  0.00    +0.193 HD
ENDROOT
BRANCH   1   8
ATOM      8  N   UNL     1     -29.953   0.097  16.131  1.00  0.00    +0.033 NA
BRANCH   8   9
ATOM      9  O   UNL     1     -29.227   1.264  16.574  1.00  0.00    -0.271 OA
ATOM     10  H   UNL     1     -28.369   1.100  16.146  1.00  0.00    +0.243 HD
ENDBRANCH   8   9
BRANCH   8  11
ATOM     11  O   UNL     1     -29.527  -1.000  16.968  1.00  0.00    -0.271 OA
ATOM     12  H   UNL     1     -28.643  -0.675  17.220  1.00  0.00    +0.243 HD
ENDBRANCH   8  11
ENDBRANCH   1   8
BRANCH   4  13
ATOM     13  N   UNL     1     -26.887  -0.253  12.546  1.00  0.00    -0.180 NA
ATOM     14  C   UNL     1     -26.652   0.973  12.216  1.00  0.00    +0.148 C 
BRANCH  14  15
ATOM     15  C   UNL     1     -25.382   1.344  11.574  1.00  0.00    +0.072 A 
ATOM     16  C   UNL     1     -24.968   2.665  11.390  1.00  0.00    +0.278 A 
ATOM     17  C   UNL     1     -24.535   0.301  11.178  1.00  0.00    +0.017 A 
ATOM     18  C   UNL     1     -23.710   2.960  10.846  1.00  0.00    +0.086 A 
ATOM     19  C   UNL     1     -23.281   0.589  10.632  1.00  0.00    +0.001 A 
ATOM     20  C   UNL     1     -22.866   1.914  10.474  1.00  0.00    +0.007 A 
BRANCH  16  21
ATOM     21  N   UNL     1     -25.874   3.775  11.631  1.00  0.00    +0.063 N 
ATOM     22  O   UNL     1     -26.035   4.122  12.811  1.00  0.00    -0.258 OA
ATOM     23  O   UNL     1     -26.499   4.216  10.657  1.00  0.00    -0.258 OA
ENDBRANCH  16  21
ENDBRANCH  14  15
ENDBRANCH   4  13
TORSDOF 6
ENDMDL
MODEL 9
REMARK VINA RESULT:    -6.890      8.380     10.474
REMARK INTER + INTRA:          -9.473
REMARK INTER:                  -8.918
REMARK INTRA:                  -0.555
REMARK UNBOUND:                -0.569
REMARK SMILES N=C(NN=Cc1ccccc1[N+](=O)[O-])NN(O)O
REMARK SMILES IDX 15 1 2 2 1 3 3 4 16 8 17 9 18 11 4 13 5 14 6 15 11 16 7 17
REMARK SMILES IDX 10 18 8 19 9 20 12 21 13 22 14 23
REMARK H PARENT 15 5 1 6 3 7 17 10 18 12
ROOT
ATOM      1  N   UNL     1     -32.209   7.731   8.052  1.00  0.00    -0.240 N 
ATOM      2  C   UNL     1     -33.329   6.971   7.778  1.00  0.00    +0.227 C 
ATOM      3  N   UNL     1     -34.235   7.324   6.920  1.00  0.00    -0.267 NA
ATOM      4  N   UNL     1     -33.341   5.778   8.462  1.00  0.00    -0.246 N 
ATOM      5  H   UNL     1     -31.972   7.717   9.041  1.00  0.00    +0.190 HD
ATOM      6  H   UNL     1     -33.954   8.254   6.586  1.00  0.00    +0.191 HD
ATOM      7  H   UNL     1     -32.507   5.554   8.992  1.00  0.00    +0.193 HD
ENDROOT
BRANCH   1   8
ATOM      8  N   UNL     1     -32.190   9.023   7.534  1.00  0.00    +0.033 NA
BRANCH   8   9
ATOM      9  O   UNL     1     -33.396   9.730   7.897  1.00  0.00    -0.271 OA
ATOM     10  H   UNL     1     -33.387   9.592   8.860  1.00  0.00    +0.243 HD
ENDBRANCH   8   9
BRANCH   8  11
ATOM     11  O   UNL     1     -32.161   8.962   6.092  1.00  0.00    -0.271 OA
ATOM     12  H   UNL     1     -31.791   8.068   5.977  1.00  0.00    +0.243 HD
ENDBRANCH   8  11
ENDBRANCH   1   8
BRANCH   4  13
ATOM     13  N   UNL     1     -34.461   5.035   8.681  1.00  0.00    -0.180 NA
ATOM     14  C   UNL     1     -34.680   4.729   9.916  1.00  0.00    +0.148 C 
BRANCH  14  15
ATOM     15  C   UNL     1     -35.862   3.940  10.292  1.00  0.00    +0.072 A 
ATOM     16  C   UNL     1     -35.887   2.543  10.296  1.00  0.00    +0.278 A 
ATOM     17  C   UNL     1     -36.997   4.645  10.711  1.00  0.00    +0.017 A 
ATOM     18  C   UNL     1     -37.015   1.841  10.742  1.00  0.00    +0.086 A 
ATOM     19  C   UNL     1     -38.127   3.950  11.154  1.00  0.00    +0.001 A 
ATOM     20  C   UNL     1     -38.134   2.553  11.177  1.00  0.00    +0.007 A 
BRANCH  16  21
ATOM     21  N   UNL     1     -34.801   1.772   9.717  1.00  0.00    +0.063 N 
ATOM     22  O   UNL     1     -34.747   1.722   8.479  1.00  0.00    -0.258 OA
ATOM     23  O   UNL     1     -34.079   1.137  10.497  1.00  0.00    -0.258 OA
ENDBRANCH  16  21
ENDBRANCH  14  15
ENDBRANCH   4  13
TORSDOF 6
ENDMDL
