REMARK SMILES CC(=O)c1ccc(N=C[C@@H]2CCCCC2=O)cc1
REMARK SMILES IDX 4 1 5 2 6 3 7 4 17 5 18 6 2 7 3 8 1 9 8 10 9 11 10 12 11 13
REMARK SMILES IDX 15 14 12 15 14 16 16 17 13 18
REMARK H PARENT
ROOT
ATOM      1  C   UNL     1       3.435  -0.120  -0.340  1.00  0.00    +0.017 A 
ATOM      2  C   UNL     1       2.782   0.983   0.220  1.00  0.00    +0.014 A 
ATOM      3  C   UNL     1       1.528   1.373  -0.263  1.00  0.00    +0.029 A 
ATOM      4  C   UNL     1       0.908   0.662  -1.294  1.00  0.00    +0.063 A 
ATOM      5  C   UNL     1       1.568  -0.427  -1.863  1.00  0.00    +0.029 A 
ATOM      6  C   UNL     1       2.821  -0.822  -1.387  1.00  0.00    +0.014 A 
ENDROOT
BRANCH   1   7
ATOM      7  C   UNL     1       4.772  -0.582   0.139  1.00  0.00    +0.159 C 
ATOM      8  O   UNL     1       5.281  -1.591  -0.346  1.00  0.00    -0.295 OA
ATOM      9  C   UNL     1       5.473   0.202   1.217  1.00  0.00    +0.093 C 
ENDBRANCH   1   7
BRANCH   4  10
ATOM     10  N   UNL     1      -0.340   1.057  -1.784  1.00  0.00    -0.260 NA
ATOM     11  C   UNL     1      -1.423   0.710  -1.154  1.00  0.00    +0.095 C 
BRANCH  11  12
ATOM     12  C   UNL     1      -1.545  -0.129   0.101  1.00  0.00    +0.097 C 
ATOM     13  C   UNL     1      -2.424  -1.357  -0.162  1.00  0.00    +0.017 C 
ATOM     14  C   UNL     1      -2.083   0.697   1.253  1.00  0.00    +0.141 C 
ATOM     15  C   UNL     1      -3.920  -1.045  -0.190  1.00  0.00    +0.002 C 
ATOM     16  C   UNL     1      -3.572   0.959   1.290  1.00  0.00    +0.076 C 
ATOM     17  O   UNL     1      -1.327   1.230   2.066  1.00  0.00    -0.299 OA
ATOM     18  C   UNL     1      -4.354  -0.329   1.083  1.00  0.00    +0.008 C 
ENDBRANCH  11  12
ENDBRANCH   4  10
TORSDOF 3
