REMARK SMILES Cc1nc(NCc2ccccc2)c2cnn(C)c2n1
REMARK SMILES IDX 5 1 4 3 16 4 15 5 18 6 14 7 13 8 19 9 2 10 3 11 17 12 1 13
REMARK SMILES IDX 6 14 7 15 8 16 12 17 9 18 11 19 10 20
REMARK H PARENT 5 2
ROOT
ATOM      1  N   UNL     1      -0.460  -0.633  -1.782  1.00  0.00    -0.365 N 
ATOM      2  H   UNL     1      -0.677  -1.581  -1.497  1.00  0.00    +0.162 HD
ENDROOT
BRANCH   1   3
ATOM      3  C   UNL     1       0.603  -0.092  -1.060  1.00  0.00    +0.141 A 
ATOM      4  N   UNL     1       3.303  -1.247   0.864  1.00  0.00    -0.250 N 
ATOM      5  N   UNL     1       2.846  -2.493   0.600  1.00  0.00    -0.179 NA
ATOM      6  C   UNL     1       2.552  -0.254   0.294  1.00  0.00    +0.163 A 
ATOM      7  C   UNL     1       1.770  -2.266  -0.163  1.00  0.00    +0.149 A 
ATOM      8  C   UNL     1       1.531  -0.893  -0.385  1.00  0.00    +0.081 A 
ATOM      9  N   UNL     1       2.758   1.070   0.373  1.00  0.00    -0.214 NA
ATOM     10  C   UNL     1       1.837   1.764  -0.322  1.00  0.00    +0.130 A 
ATOM     11  N   UNL     1       0.790   1.251  -1.009  1.00  0.00    -0.216 NA
ATOM     12  C   UNL     1       4.483  -1.083   1.676  1.00  0.00    +0.176 C 
ATOM     13  C   UNL     1       1.953   3.257  -0.294  1.00  0.00    +0.090 C 
ENDBRANCH   1   3
BRANCH   1  14
ATOM     14  C   UNL     1      -1.642   0.201  -1.941  1.00  0.00    +0.150 C 
BRANCH  14  15
ATOM     15  C   UNL     1      -2.593  -0.008  -0.784  1.00  0.00    -0.029 A 
ATOM     16  C   UNL     1      -3.560  -1.023  -0.828  1.00  0.00    +0.005 A 
ATOM     17  C   UNL     1      -2.494   0.786   0.368  1.00  0.00    +0.005 A 
ATOM     18  C   UNL     1      -4.420  -1.228   0.253  1.00  0.00    +0.000 A 
ATOM     19  C   UNL     1      -3.353   0.578   1.448  1.00  0.00    +0.000 A 
ATOM     20  C   UNL     1      -4.316  -0.428   1.389  1.00  0.00    +0.000 A 
ENDBRANCH  14  15
ENDBRANCH   1  14
TORSDOF 3
