MODEL 1
REMARK VINA RESULT:    -8.925      0.000      0.000
REMARK INTER + INTRA:         -11.675
REMARK INTER:                 -11.012
REMARK INTRA:                  -0.663
REMARK UNBOUND:                -0.663
REMARK SMILES O=C(O)C(=Cc1cc(Cl)c(O)c(Cl)c1)c1ccccc1
REMARK SMILES IDX 4 1 5 2 2 3 1 4 3 5 15 7 16 8 20 9 17 10 19 11 18 12 6 13
REMARK SMILES IDX 14 14 7 15 12 16 8 17 10 18 13 19 9 20 11 21
REMARK H PARENT 3 6 11 22
ROOT
ATOM      1  C   UNL     1     -29.822   9.899   6.472  1.00  0.00    +0.067 C 
ATOM      2  C   UNL     1     -29.917   8.560   6.335  1.00  0.00    +0.024 C 
ENDROOT
BRANCH   1   3
ATOM      3  C   UNL     1     -30.953  10.752   6.917  1.00  0.00    +0.336 C 
ATOM      4  O   UNL     1     -31.147  11.142   8.055  1.00  0.00    -0.246 OA
BRANCH   3   5
ATOM      5  O   UNL     1     -31.754  11.134   5.906  1.00  0.00    -0.478 OA
ATOM      6  H   UNL     1     -32.653  11.085   6.290  1.00  0.00    +0.297 HD
ENDBRANCH   3   5
ENDBRANCH   1   3
BRANCH   1   7
ATOM      7  C   UNL     1     -28.526  10.545   6.179  1.00  0.00    -0.011 A 
ATOM      8  C   UNL     1     -28.466  11.843   5.648  1.00  0.00    +0.009 A 
ATOM      9  C   UNL     1     -27.329   9.858   6.428  1.00  0.00    +0.009 A 
ATOM     10  C   UNL     1     -27.234  12.441   5.378  1.00  0.00    +0.001 A 
ATOM     11  C   UNL     1     -26.098  10.460   6.158  1.00  0.00    +0.001 A 
ATOM     12  C   UNL     1     -26.051  11.751   5.635  1.00  0.00    +0.000 A 
ENDBRANCH   1   7
BRANCH   2  13
ATOM     13  C   UNL     1     -31.083   7.724   6.649  1.00  0.00    -0.022 A 
ATOM     14  C   UNL     1     -31.198   7.085   7.889  1.00  0.00    +0.032 A 
ATOM     15  C   UNL     1     -32.077   7.539   5.681  1.00  0.00    +0.032 A 
ATOM     16  C   UNL     1     -32.311   6.286   8.158  1.00  0.00    +0.084 A 
ATOM     17  C   UNL     1     -33.187   6.738   5.956  1.00  0.00    +0.084 A 
ATOM     18  C   UNL     1     -33.309   6.109   7.197  1.00  0.00    +0.152 A 
ATOM     19 Cl   UNL     1     -32.436   5.514   9.697  1.00  0.00    -0.080 Cl
ATOM     20 Cl   UNL     1     -34.389   6.550   4.731  1.00  0.00    -0.080 Cl
BRANCH  18  21
ATOM     21  O   UNL     1     -34.402   5.323   7.459  1.00  0.00    -0.505 OA
ATOM     22  H   UNL     1     -34.134   4.645   8.106  1.00  0.00    +0.293 HD
ENDBRANCH  18  21
ENDBRANCH   2  13
TORSDOF 5
ENDMDL
MODEL 2
REMARK VINA RESULT:    -8.799      0.066      2.301
REMARK INTER + INTRA:         -11.519
REMARK INTER:                 -10.866
REMARK INTRA:                  -0.653
REMARK UNBOUND:                -0.663
REMARK SMILES O=C(O)C(=Cc1cc(Cl)c(O)c(Cl)c1)c1ccccc1
REMARK SMILES IDX 4 1 5 2 2 3 1 4 3 5 15 7 16 8 20 9 17 10 19 11 18 12 6 13
REMARK SMILES IDX 14 14 7 15 12 16 8 17 10 18 13 19 9 20 11 21
REMARK H PARENT 3 6 11 22
ROOT
ATOM      1  C   UNL     1     -29.788   9.921   6.445  1.00  0.00    +0.067 C 
ATOM      2  C   UNL     1     -29.885   8.585   6.278  1.00  0.00    +0.024 C 
ENDROOT
BRANCH   1   3
ATOM      3  C   UNL     1     -30.918  10.766   6.906  1.00  0.00    +0.336 C 
ATOM      4  O   UNL     1     -31.097  11.158   8.046  1.00  0.00    -0.246 OA
BRANCH   3   5
ATOM      5  O   UNL     1     -31.739  11.137   5.908  1.00  0.00    -0.478 OA
ATOM      6  H   UNL     1     -32.179  11.940   6.255  1.00  0.00    +0.297 HD
ENDBRANCH   3   5
ENDBRANCH   1   3
BRANCH   1   7
ATOM      7  C   UNL     1     -28.489  10.571   6.171  1.00  0.00    -0.011 A 
ATOM      8  C   UNL     1     -27.279   9.915   6.445  1.00  0.00    +0.009 A 
ATOM      9  C   UNL     1     -28.454  11.865   5.633  1.00  0.00    +0.009 A 
ATOM     10  C   UNL     1     -26.059  10.540   6.178  1.00  0.00    +0.001 A 
ATOM     11  C   UNL     1     -27.232  12.488   5.368  1.00  0.00    +0.001 A 
ATOM     12  C   UNL     1     -26.036  11.825   5.639  1.00  0.00    +0.000 A 
ENDBRANCH   1   7
BRANCH   2  13
ATOM     13  C   UNL     1     -31.053   7.745   6.570  1.00  0.00    -0.022 A 
ATOM     14  C   UNL     1     -32.070   7.570   5.625  1.00  0.00    +0.032 A 
ATOM     15  C   UNL     1     -31.164   7.135   7.825  1.00  0.00    +0.032 A 
ATOM     16  C   UNL     1     -33.176   6.775   5.932  1.00  0.00    +0.084 A 
ATOM     17  C   UNL     1     -32.273   6.341   8.127  1.00  0.00    +0.084 A 
ATOM     18  C   UNL     1     -33.283   6.157   7.180  1.00  0.00    +0.152 A 
ATOM     19 Cl   UNL     1     -34.414   6.568   4.747  1.00  0.00    -0.080 Cl
ATOM     20 Cl   UNL     1     -32.358   5.604   9.686  1.00  0.00    -0.080 Cl
BRANCH  18  21
ATOM     21  O   UNL     1     -34.369   5.377   7.484  1.00  0.00    -0.505 OA
ATOM     22  H   UNL     1     -34.248   4.513   7.047  1.00  0.00    +0.293 HD
ENDBRANCH  18  21
ENDBRANCH   2  13
TORSDOF 5
ENDMDL
MODEL 3
REMARK VINA RESULT:    -8.223      3.307      6.790
REMARK INTER + INTRA:         -10.808
REMARK INTER:                 -11.385
REMARK INTRA:                   0.577
REMARK UNBOUND:                -0.663
REMARK SMILES O=C(O)C(=Cc1cc(Cl)c(O)c(Cl)c1)c1ccccc1
REMARK SMILES IDX 4 1 5 2 2 3 1 4 3 5 15 7 16 8 20 9 17 10 19 11 18 12 6 13
REMARK SMILES IDX 14 14 7 15 12 16 8 17 10 18 13 19 9 20 11 21
REMARK H PARENT 3 6 11 22
ROOT
ATOM      1  C   UNL     1     -30.942   8.495   7.275  1.00  0.00    +0.067 C 
ATOM      2  C   UNL     1     -29.657   8.132   7.081  1.00  0.00    +0.024 C 
ENDROOT
BRANCH   1   3
ATOM      3  C   UNL     1     -31.413   9.900   7.174  1.00  0.00    +0.336 C 
ATOM      4  O   UNL     1     -31.448  10.706   8.086  1.00  0.00    -0.246 OA
BRANCH   3   5
ATOM      5  O   UNL     1     -31.756  10.251   5.923  1.00  0.00    -0.478 OA
ATOM      6  H   UNL     1     -30.971  10.011   5.390  1.00  0.00    +0.297 HD
ENDBRANCH   3   5
ENDBRANCH   1   3
BRANCH   1   7
ATOM      7  C   UNL     1     -31.931   7.442   7.586  1.00  0.00    -0.011 A 
ATOM      8  C   UNL     1     -33.204   7.446   6.995  1.00  0.00    +0.009 A 
ATOM      9  C   UNL     1     -31.605   6.420   8.489  1.00  0.00    +0.009 A 
ATOM     10  C   UNL     1     -34.128   6.443   7.297  1.00  0.00    +0.001 A 
ATOM     11  C   UNL     1     -32.530   5.418   8.788  1.00  0.00    +0.001 A 
ATOM     12  C   UNL     1     -33.790   5.429   8.192  1.00  0.00    +0.000 A 
ENDBRANCH   1   7
BRANCH   2  13
ATOM     13  C   UNL     1     -28.545   9.006   6.688  1.00  0.00    -0.022 A 
ATOM     14  C   UNL     1     -28.780  10.303   6.216  1.00  0.00    +0.032 A 
ATOM     15  C   UNL     1     -27.233   8.523   6.757  1.00  0.00    +0.032 A 
ATOM     16  C   UNL     1     -27.706  11.110   5.838  1.00  0.00    +0.084 A 
ATOM     17  C   UNL     1     -26.162   9.336   6.377  1.00  0.00    +0.084 A 
ATOM     18  C   UNL     1     -26.395  10.634   5.917  1.00  0.00    +0.152 A 
ATOM     19 Cl   UNL     1     -28.019  12.709   5.267  1.00  0.00    -0.080 Cl
ATOM     20 Cl   UNL     1     -24.563   8.695   6.490  1.00  0.00    -0.080 Cl
BRANCH  18  21
ATOM     21  O   UNL     1     -25.339  11.425   5.544  1.00  0.00    -0.505 OA
ATOM     22  H   UNL     1     -24.591  10.840   5.322  1.00  0.00    +0.293 HD
ENDBRANCH  18  21
ENDBRANCH   2  13
TORSDOF 5
ENDMDL
MODEL 4
REMARK VINA RESULT:    -8.140      3.244      6.772
REMARK INTER + INTRA:         -10.706
REMARK INTER:                 -10.413
REMARK INTRA:                  -0.294
REMARK UNBOUND:                -0.663
REMARK SMILES O=C(O)C(=Cc1cc(Cl)c(O)c(Cl)c1)c1ccccc1
REMARK SMILES IDX 4 1 5 2 2 3 1 4 3 5 15 7 16 8 20 9 17 10 19 11 18 12 6 13
REMARK SMILES IDX 14 14 7 15 12 16 8 17 10 18 13 19 9 20 11 21
REMARK H PARENT 3 6 11 22
ROOT
ATOM      1  C   UNL     1     -31.355   7.388   7.190  1.00  0.00    +0.067 C 
ATOM      2  C   UNL     1     -30.196   7.779   7.759  1.00  0.00    +0.024 C 
ENDROOT
BRANCH   1   3
ATOM      3  C   UNL     1     -31.820   7.885   5.870  1.00  0.00    +0.336 C 
ATOM      4  O   UNL     1     -31.693   7.306   4.806  1.00  0.00    -0.246 OA
BRANCH   3   5
ATOM      5  O   UNL     1     -32.481   9.053   5.950  1.00  0.00    -0.478 OA
ATOM      6  H   UNL     1     -33.417   8.785   6.053  1.00  0.00    +0.297 HD
ENDBRANCH   3   5
ENDBRANCH   1   3
BRANCH   1   7
ATOM      7  C   UNL     1     -32.195   6.407   7.908  1.00  0.00    -0.011 A 
ATOM      8  C   UNL     1     -33.508   6.135   7.492  1.00  0.00    +0.009 A 
ATOM      9  C   UNL     1     -31.685   5.734   9.027  1.00  0.00    +0.009 A 
ATOM     10  C   UNL     1     -34.289   5.204   8.178  1.00  0.00    +0.001 A 
ATOM     11  C   UNL     1     -32.469   4.803   9.711  1.00  0.00    +0.001 A 
ATOM     12  C   UNL     1     -33.769   4.537   9.286  1.00  0.00    +0.000 A 
ENDBRANCH   1   7
BRANCH   2  13
ATOM     13  C   UNL     1     -29.189   8.676   7.179  1.00  0.00    -0.022 A 
ATOM     14  C   UNL     1     -27.874   8.246   6.972  1.00  0.00    +0.032 A 
ATOM     15  C   UNL     1     -29.545   9.992   6.859  1.00  0.00    +0.032 A 
ATOM     16  C   UNL     1     -26.933   9.123   6.429  1.00  0.00    +0.084 A 
ATOM     17  C   UNL     1     -28.598  10.865   6.317  1.00  0.00    +0.084 A 
ATOM     18  C   UNL     1     -27.288  10.433   6.099  1.00  0.00    +0.152 A 
ATOM     19 Cl   UNL     1     -25.318   8.567   6.174  1.00  0.00    -0.080 Cl
ATOM     20 Cl   UNL     1     -29.090  12.475   5.932  1.00  0.00    -0.080 Cl
BRANCH  18  21
ATOM     21  O   UNL     1     -26.365  11.296   5.567  1.00  0.00    -0.505 OA
ATOM     22  H   UNL     1     -26.225  12.017   6.209  1.00  0.00    +0.293 HD
ENDBRANCH  18  21
ENDBRANCH   2  13
TORSDOF 5
ENDMDL
MODEL 5
REMARK VINA RESULT:    -8.117      3.002      4.697
REMARK INTER + INTRA:         -10.677
REMARK INTER:                 -10.315
REMARK INTRA:                  -0.362
REMARK UNBOUND:                -0.663
REMARK SMILES O=C(O)C(=Cc1cc(Cl)c(O)c(Cl)c1)c1ccccc1
REMARK SMILES IDX 4 1 5 2 2 3 1 4 3 5 15 7 16 8 20 9 17 10 19 11 18 12 6 13
REMARK SMILES IDX 14 14 7 15 12 16 8 17 10 18 13 19 9 20 11 21
REMARK H PARENT 3 6 11 22
ROOT
ATOM      1  C   UNL     1     -32.128   7.038   7.800  1.00  0.00    +0.067 C 
ATOM      2  C   UNL     1     -31.726   6.253   8.821  1.00  0.00    +0.024 C 
ENDROOT
BRANCH   1   3
ATOM      3  C   UNL     1     -33.298   6.719   6.943  1.00  0.00    +0.336 C 
ATOM      4  O   UNL     1     -33.299   5.953   5.995  1.00  0.00    -0.246 OA
BRANCH   3   5
ATOM      5  O   UNL     1     -34.429   7.322   7.349  1.00  0.00    -0.478 OA
ATOM      6  H   UNL     1     -34.122   7.960   8.026  1.00  0.00    +0.297 HD
ENDBRANCH   3   5
ENDBRANCH   1   3
BRANCH   1   7
ATOM      7  C   UNL     1     -31.378   8.283   7.533  1.00  0.00    -0.011 A 
ATOM      8  C   UNL     1     -31.987   9.540   7.672  1.00  0.00    +0.009 A 
ATOM      9  C   UNL     1     -30.037   8.220   7.129  1.00  0.00    +0.009 A 
ATOM     10  C   UNL     1     -31.266  10.708   7.419  1.00  0.00    +0.001 A 
ATOM     11  C   UNL     1     -29.318   9.390   6.877  1.00  0.00    +0.001 A 
ATOM     12  C   UNL     1     -29.932  10.633   7.023  1.00  0.00    +0.000 A 
ENDBRANCH   1   7
BRANCH   2  13
ATOM     13  C   UNL     1     -32.376   5.026   9.297  1.00  0.00    -0.022 A 
ATOM     14  C   UNL     1     -33.699   5.043   9.757  1.00  0.00    +0.032 A 
ATOM     15  C   UNL     1     -31.652   3.828   9.320  1.00  0.00    +0.032 A 
ATOM     16  C   UNL     1     -34.291   3.865  10.215  1.00  0.00    +0.084 A 
ATOM     17  C   UNL     1     -32.250   2.652   9.780  1.00  0.00    +0.084 A 
ATOM     18  C   UNL     1     -33.572   2.666  10.228  1.00  0.00    +0.152 A 
ATOM     19 Cl   UNL     1     -35.925   3.907  10.769  1.00  0.00    -0.080 Cl
ATOM     20 Cl   UNL     1     -31.315   1.200   9.780  1.00  0.00    -0.080 Cl
BRANCH  18  21
ATOM     21  O   UNL     1     -34.152   1.508  10.679  1.00  0.00    -0.505 OA
ATOM     22  H   UNL     1     -34.375   1.632  11.620  1.00  0.00    +0.293 HD
ENDBRANCH  18  21
ENDBRANCH   2  13
TORSDOF 5
ENDMDL
MODEL 6
REMARK VINA RESULT:    -8.097      2.988      4.602
REMARK INTER + INTRA:         -10.653
REMARK INTER:                 -10.408
REMARK INTRA:                  -0.245
REMARK UNBOUND:                -0.663
REMARK SMILES O=C(O)C(=Cc1cc(Cl)c(O)c(Cl)c1)c1ccccc1
REMARK SMILES IDX 4 1 5 2 2 3 1 4 3 5 15 7 16 8 20 9 17 10 19 11 18 12 6 13
REMARK SMILES IDX 14 14 7 15 12 16 8 17 10 18 13 19 9 20 11 21
REMARK H PARENT 3 6 11 22
ROOT
ATOM      1  C   UNL     1     -32.097   7.021   7.841  1.00  0.00    +0.067 C 
ATOM      2  C   UNL     1     -31.638   6.219   8.825  1.00  0.00    +0.024 C 
ENDROOT
BRANCH   1   3
ATOM      3  C   UNL     1     -33.313   6.716   7.046  1.00  0.00    +0.336 C 
ATOM      4  O   UNL     1     -33.378   5.935   6.113  1.00  0.00    -0.246 OA
BRANCH   3   5
ATOM      5  O   UNL     1     -34.409   7.352   7.496  1.00  0.00    -0.478 OA
ATOM      6  H   UNL     1     -34.111   7.766   8.332  1.00  0.00    +0.297 HD
ENDBRANCH   3   5
ENDBRANCH   1   3
BRANCH   1   7
ATOM      7  C   UNL     1     -31.362   8.270   7.552  1.00  0.00    -0.011 A 
ATOM      8  C   UNL     1     -31.980   9.523   7.692  1.00  0.00    +0.009 A 
ATOM      9  C   UNL     1     -30.028   8.216   7.126  1.00  0.00    +0.009 A 
ATOM     10  C   UNL     1     -31.273  10.695   7.418  1.00  0.00    +0.001 A 
ATOM     11  C   UNL     1     -29.323   9.390   6.853  1.00  0.00    +0.001 A 
ATOM     12  C   UNL     1     -29.945  10.628   7.000  1.00  0.00    +0.000 A 
ENDBRANCH   1   7
BRANCH   2  13
ATOM     13  C   UNL     1     -32.261   4.985   9.316  1.00  0.00    -0.022 A 
ATOM     14  C   UNL     1     -31.561   3.772   9.314  1.00  0.00    +0.032 A 
ATOM     15  C   UNL     1     -33.587   5.016   9.765  1.00  0.00    +0.032 A 
ATOM     16  C   UNL     1     -32.181   2.610   9.776  1.00  0.00    +0.084 A 
ATOM     17  C   UNL     1     -34.202   3.849  10.225  1.00  0.00    +0.084 A 
ATOM     18  C   UNL     1     -33.501   2.642  10.234  1.00  0.00    +0.152 A 
ATOM     19 Cl   UNL     1     -31.295   1.128   9.772  1.00  0.00    -0.080 Cl
ATOM     20 Cl   UNL     1     -35.836   3.943  10.775  1.00  0.00    -0.080 Cl
BRANCH  18  21
ATOM     21  O   UNL     1     -34.111   1.501  10.687  1.00  0.00    -0.505 OA
ATOM     22  H   UNL     1     -34.992   1.448  10.272  1.00  0.00    +0.293 HD
ENDBRANCH  18  21
ENDBRANCH   2  13
TORSDOF 5
ENDMDL
MODEL 7
REMARK VINA RESULT:    -7.990      3.331      6.614
REMARK INTER + INTRA:         -10.521
REMARK INTER:                 -10.770
REMARK INTRA:                   0.249
REMARK UNBOUND:                -0.663
REMARK SMILES O=C(O)C(=Cc1cc(Cl)c(O)c(Cl)c1)c1ccccc1
REMARK SMILES IDX 4 1 5 2 2 3 1 4 3 5 15 7 16 8 20 9 17 10 19 11 18 12 6 13
REMARK SMILES IDX 14 14 7 15 12 16 8 17 10 18 13 19 9 20 11 21
REMARK H PARENT 3 6 11 22
ROOT
ATOM      1  C   UNL     1     -30.924   8.660   6.532  1.00  0.00    +0.067 C 
ATOM      2  C   UNL     1     -29.675   8.229   6.255  1.00  0.00    +0.024 C 
ENDROOT
BRANCH   1   3
ATOM      3  C   UNL     1     -31.246  10.079   6.828  1.00  0.00    +0.336 C 
ATOM      4  O   UNL     1     -31.016  10.659   7.874  1.00  0.00    -0.246 OA
BRANCH   3   5
ATOM      5  O   UNL     1     -31.782  10.726   5.778  1.00  0.00    -0.478 OA
ATOM      6  H   UNL     1     -32.017  10.008   5.156  1.00  0.00    +0.297 HD
ENDBRANCH   3   5
ENDBRANCH   1   3
BRANCH   1   7
ATOM      7  C   UNL     1     -32.025   7.674   6.525  1.00  0.00    -0.011 A 
ATOM      8  C   UNL     1     -32.662   7.308   5.330  1.00  0.00    +0.009 A 
ATOM      9  C   UNL     1     -32.453   7.093   7.728  1.00  0.00    +0.009 A 
ATOM     10  C   UNL     1     -33.700   6.374   5.338  1.00  0.00    +0.001 A 
ATOM     11  C   UNL     1     -33.490   6.160   7.733  1.00  0.00    +0.001 A 
ATOM     12  C   UNL     1     -34.113   5.799   6.539  1.00  0.00    +0.000 A 
ENDBRANCH   1   7
BRANCH   2  13
ATOM     13  C   UNL     1     -28.467   9.053   6.134  1.00  0.00    -0.022 A 
ATOM     14  C   UNL     1     -27.205   8.534   6.450  1.00  0.00    +0.032 A 
ATOM     15  C   UNL     1     -28.582  10.387   5.726  1.00  0.00    +0.032 A 
ATOM     16  C   UNL     1     -26.073   9.342   6.337  1.00  0.00    +0.084 A 
ATOM     17  C   UNL     1     -27.445  11.191   5.617  1.00  0.00    +0.084 A 
ATOM     18  C   UNL     1     -26.186  10.671   5.920  1.00  0.00    +0.152 A 
ATOM     19 Cl   UNL     1     -24.527   8.678   6.724  1.00  0.00    -0.080 Cl
ATOM     20 Cl   UNL     1     -27.642  12.828   5.102  1.00  0.00    -0.080 Cl
BRANCH  18  21
ATOM     21  O   UNL     1     -25.074  11.467   5.811  1.00  0.00    -0.505 OA
ATOM     22  H   UNL     1     -25.309  12.234   5.257  1.00  0.00    +0.293 HD
ENDBRANCH  18  21
ENDBRANCH   2  13
TORSDOF 5
ENDMDL
MODEL 8
REMARK VINA RESULT:    -7.633      7.759      9.818
REMARK INTER + INTRA:         -10.080
REMARK INTER:                  -9.459
REMARK INTRA:                  -0.622
REMARK UNBOUND:                -0.663
REMARK SMILES O=C(O)C(=Cc1cc(Cl)c(O)c(Cl)c1)c1ccccc1
REMARK SMILES IDX 4 1 5 2 2 3 1 4 3 5 15 7 16 8 20 9 17 10 19 11 18 12 6 13
REMARK SMILES IDX 14 14 7 15 12 16 8 17 10 18 13 19 9 20 11 21
REMARK H PARENT 3 6 11 22
ROOT
ATOM      1  C   UNL     1     -34.848   3.625  10.702  1.00  0.00    +0.067 C 
ATOM      2  C   UNL     1     -34.749   2.328  11.062  1.00  0.00    +0.024 C 
ENDROOT
BRANCH   1   3
ATOM      3  C   UNL     1     -33.676   4.530  10.594  1.00  0.00    +0.336 C 
ATOM      4  O   UNL     1     -32.827   4.495   9.721  1.00  0.00    -0.246 OA
BRANCH   3   5
ATOM      5  O   UNL     1     -33.656   5.480  11.545  1.00  0.00    -0.478 OA
ATOM      6  H   UNL     1     -33.183   5.054  12.289  1.00  0.00    +0.297 HD
ENDBRANCH   3   5
ENDBRANCH   1   3
BRANCH   1   7
ATOM      7  C   UNL     1     -36.187   4.165  10.386  1.00  0.00    -0.011 A 
ATOM      8  C   UNL     1     -37.342   3.635  10.981  1.00  0.00    +0.009 A 
ATOM      9  C   UNL     1     -36.318   5.222   9.473  1.00  0.00    +0.009 A 
ATOM     10  C   UNL     1     -38.600   4.156  10.674  1.00  0.00    +0.001 A 
ATOM     11  C   UNL     1     -37.577   5.741   9.168  1.00  0.00    +0.001 A 
ATOM     12  C   UNL     1     -38.717   5.211   9.770  1.00  0.00    +0.000 A 
ENDBRANCH   1   7
BRANCH   2  13
ATOM     13  C   UNL     1     -33.513   1.584  11.338  1.00  0.00    -0.022 A 
ATOM     14  C   UNL     1     -32.897   1.649  12.593  1.00  0.00    +0.032 A 
ATOM     15  C   UNL     1     -32.927   0.824  10.319  1.00  0.00    +0.032 A 
ATOM     16  C   UNL     1     -31.717   0.941  12.826  1.00  0.00    +0.084 A 
ATOM     17  C   UNL     1     -31.745   0.119  10.558  1.00  0.00    +0.084 A 
ATOM     18  C   UNL     1     -31.136   0.173  11.813  1.00  0.00    +0.152 A 
ATOM     19 Cl   UNL     1     -30.980   1.030  14.385  1.00  0.00    -0.080 Cl
ATOM     20 Cl   UNL     1     -31.067  -0.811   9.270  1.00  0.00    -0.080 Cl
BRANCH  18  21
ATOM     21  O   UNL     1     -29.976  -0.521  12.040  1.00  0.00    -0.505 OA
ATOM     22  H   UNL     1     -29.968  -1.292  11.444  1.00  0.00    +0.293 HD
ENDBRANCH  18  21
ENDBRANCH   2  13
TORSDOF 5
ENDMDL
MODEL 9
REMARK VINA RESULT:    -7.604     10.577     12.881
REMARK INTER + INTRA:         -10.044
REMARK INTER:                  -9.383
REMARK INTRA:                  -0.661
REMARK UNBOUND:                -0.663
REMARK SMILES O=C(O)C(=Cc1cc(Cl)c(O)c(Cl)c1)c1ccccc1
REMARK SMILES IDX 4 1 5 2 2 3 1 4 3 5 15 7 16 8 20 9 17 10 19 11 18 12 6 13
REMARK SMILES IDX 14 14 7 15 12 16 8 17 10 18 13 19 9 20 11 21
REMARK H PARENT 3 6 11 22
ROOT
ATOM      1  C   UNL     1     -28.200  -0.841  11.800  1.00  0.00    +0.067 C 
ATOM      2  C   UNL     1     -27.447  -0.458  10.747  1.00  0.00    +0.024 C 
ENDROOT
BRANCH   1   3
ATOM      3  C   UNL     1     -27.691  -0.871  13.194  1.00  0.00    +0.336 C 
ATOM      4  O   UNL     1     -27.788   0.030  14.008  1.00  0.00    -0.246 OA
BRANCH   3   5
ATOM      5  O   UNL     1     -27.142  -2.052  13.528  1.00  0.00    -0.478 OA
ATOM      6  H   UNL     1     -27.704  -2.371  14.264  1.00  0.00    +0.297 HD
ENDBRANCH   3   5
ENDBRANCH   1   3
BRANCH   1   7
ATOM      7  C   UNL     1     -29.604  -1.233  11.554  1.00  0.00    -0.011 A 
ATOM      8  C   UNL     1     -30.303  -2.034  12.471  1.00  0.00    +0.009 A 
ATOM      9  C   UNL     1     -30.256  -0.810  10.387  1.00  0.00    +0.009 A 
ATOM     10  C   UNL     1     -31.629  -2.396  12.227  1.00  0.00    +0.001 A 
ATOM     11  C   UNL     1     -31.582  -1.173  10.147  1.00  0.00    +0.001 A 
ATOM     12  C   UNL     1     -32.268  -1.964  11.066  1.00  0.00    +0.000 A 
ENDBRANCH   1   7
BRANCH   2  13
ATOM     13  C   UNL     1     -26.067   0.041  10.788  1.00  0.00    -0.022 A 
ATOM     14  C   UNL     1     -24.982  -0.827  10.617  1.00  0.00    +0.032 A 
ATOM     15  C   UNL     1     -25.834   1.399  11.032  1.00  0.00    +0.032 A 
ATOM     16  C   UNL     1     -23.679  -0.329  10.672  1.00  0.00    +0.084 A 
ATOM     17  C   UNL     1     -24.527   1.891  11.086  1.00  0.00    +0.084 A 
ATOM     18  C   UNL     1     -23.445   1.028  10.905  1.00  0.00    +0.152 A 
ATOM     19 Cl   UNL     1     -22.356  -1.417  10.450  1.00  0.00    -0.080 Cl
ATOM     20 Cl   UNL     1     -24.295   3.576  11.382  1.00  0.00    -0.080 Cl
BRANCH  18  21
ATOM     21  O   UNL     1     -22.165   1.518  10.960  1.00  0.00    -0.505 OA
ATOM     22  H   UNL     1     -21.770   1.423  10.074  1.00  0.00    +0.293 HD
ENDBRANCH  18  21
ENDBRANCH   2  13
TORSDOF 5
ENDMDL
