REMARK SMILES O=C1c2ccccc2C(=O)N1[C@@H]1CCCC[C@H]1O
REMARK SMILES IDX 17 1 16 2 15 3 14 4 13 5 12 6 18 7 11 9 2 10 9 11 1 12 3 13
REMARK SMILES IDX 8 14 10 15 4 16 7 17 5 18 6 19
REMARK H PARENT 18 8
ROOT
ATOM      1  C   UNL     1      -1.564   1.165   0.363  1.00  0.00    +0.137 C 
ATOM      2  C   UNL     1      -2.885   1.567  -0.304  1.00  0.00    +0.034 C 
ATOM      3  C   UNL     1      -3.856   0.392  -0.373  1.00  0.00    +0.003 C 
ATOM      4  C   UNL     1      -3.294  -0.775  -1.190  1.00  0.00    +0.002 C 
ATOM      5  C   UNL     1      -1.765  -0.788  -1.264  1.00  0.00    +0.028 C 
ATOM      6  C   UNL     1      -1.143  -0.293   0.045  1.00  0.00    +0.123 C 
ENDROOT
BRANCH   1   7
ATOM      7  O   UNL     1      -1.719   1.329   1.780  1.00  0.00    -0.391 OA
ATOM      8  H   UNL     1      -0.981   0.867   2.230  1.00  0.00    +0.211 HD
ENDBRANCH   1   7
BRANCH   6   9
ATOM      9  N   UNL     1       0.317  -0.437   0.102  1.00  0.00    -0.269 N 
ATOM     10  C   UNL     1       0.981  -0.504   1.300  1.00  0.00    +0.261 C 
ATOM     11  C   UNL     1       1.191  -0.159  -0.916  1.00  0.00    +0.261 C 
ATOM     12  O   UNL     1       0.511  -0.495   2.423  1.00  0.00    -0.269 OA
ATOM     13  C   UNL     1       2.409  -0.474   1.002  1.00  0.00    +0.053 A 
ATOM     14  C   UNL     1       2.538  -0.261  -0.356  1.00  0.00    +0.053 A 
ATOM     15  O   UNL     1       0.971   0.169  -2.066  1.00  0.00    -0.269 OA
ATOM     16  C   UNL     1       3.504  -0.583   1.836  1.00  0.00    +0.015 A 
ATOM     17  C   UNL     1       3.773  -0.145  -0.963  1.00  0.00    +0.015 A 
ATOM     18  C   UNL     1       4.767  -0.479   1.244  1.00  0.00    +0.001 A 
ATOM     19  C   UNL     1       4.901  -0.262  -0.143  1.00  0.00    +0.001 A 
ENDBRANCH   6   9
TORSDOF 2
