MODEL 1
REMARK VINA RESULT:   -10.169      0.000      0.000
REMARK INTER + INTRA:         -12.369
REMARK INTER:                 -11.952
REMARK INTRA:                  -0.416
REMARK UNBOUND:                -0.416
REMARK SMILES Cc1nc(N2CCCCC2)c2cnn(-c3ccc([N+](=O)[O-])cc3)c2n1
REMARK SMILES IDX 15 1 16 2 17 3 18 4 22 5 23 6 14 7 2 8 25 9 3 10 24 11 4 12
REMARK SMILES IDX 11 13 12 14 13 15 1 16 5 17 6 18 10 19 7 20 9 21 8 22 19 23
REMARK SMILES IDX 20 24 21 25
REMARK H PARENT
ROOT
ATOM      1  C   UNL     1     -26.696   5.488   8.324  1.00  0.00    +0.068 A 
ATOM      2  C   UNL     1     -27.611   6.550   8.181  1.00  0.00    +0.035 A 
ATOM      3  C   UNL     1     -27.296   7.670   7.404  1.00  0.00    +0.088 A 
ATOM      4  C   UNL     1     -26.055   7.735   6.762  1.00  0.00    +0.269 A 
ATOM      5  C   UNL     1     -25.134   6.688   6.894  1.00  0.00    +0.088 A 
ATOM      6  C   UNL     1     -25.456   5.569   7.673  1.00  0.00    +0.035 A 
ENDROOT
BRANCH   1   7
ATOM      7  N   UNL     1     -27.060   4.362   9.129  1.00  0.00    -0.215 N 
ATOM      8  C   UNL     1     -24.437   2.511  10.742  1.00  0.00    +0.130 A 
ATOM      9  N   UNL     1     -24.906   3.496   9.959  1.00  0.00    -0.213 NA
ATOM     10  N   UNL     1     -25.172   1.573  11.374  1.00  0.00    -0.215 NA
ATOM     11  C   UNL     1     -26.247   3.480   9.842  1.00  0.00    +0.168 A 
ATOM     12  C   UNL     1     -26.523   1.540  11.223  1.00  0.00    +0.143 A 
ATOM     13  C   UNL     1     -27.093   2.557  10.437  1.00  0.00    +0.082 A 
ATOM     14  C   UNL     1     -28.381   2.972  10.065  1.00  0.00    +0.150 A 
ATOM     15  N   UNL     1     -28.382   4.039   9.268  1.00  0.00    -0.174 NA
ATOM     16  C   UNL     1     -22.957   2.475  10.976  1.00  0.00    +0.090 C 
BRANCH  12  17
ATOM     17  N   UNL     1     -27.264   0.555  11.880  1.00  0.00    -0.356 N 
ATOM     18  C   UNL     1     -28.023   0.981  13.063  1.00  0.00    +0.118 C 
ATOM     19  C   UNL     1     -27.881  -0.447  11.003  1.00  0.00    +0.118 C 
ATOM     20  C   UNL     1     -29.472   0.496  13.013  1.00  0.00    +0.022 C 
ATOM     21  C   UNL     1     -28.499  -1.552  11.858  1.00  0.00    +0.022 C 
ATOM     22  C   UNL     1     -29.568  -1.014  12.809  1.00  0.00    +0.004 C 
ENDBRANCH  12  17
ENDBRANCH   1   7
BRANCH   4  23
ATOM     23  N   UNL     1     -25.716   8.906   5.944  1.00  0.00    +0.062 N 
ATOM     24  O   UNL     1     -24.962   9.756   6.438  1.00  0.00    -0.258 OA
ATOM     25  O   UNL     1     -26.205   8.977   4.808  1.00  0.00    -0.258 OA
ENDBRANCH   4  23
TORSDOF 3
ENDMDL
MODEL 2
REMARK VINA RESULT:    -9.564      2.683      4.501
REMARK INTER + INTRA:         -11.657
REMARK INTER:                 -11.289
REMARK INTRA:                  -0.368
REMARK UNBOUND:                -0.416
REMARK SMILES Cc1nc(N2CCCCC2)c2cnn(-c3ccc([N+](=O)[O-])cc3)c2n1
REMARK SMILES IDX 15 1 16 2 17 3 18 4 22 5 23 6 14 7 2 8 25 9 3 10 24 11 4 12
REMARK SMILES IDX 11 13 12 14 13 15 1 16 5 17 6 18 10 19 7 20 9 21 8 22 19 23
REMARK SMILES IDX 20 24 21 25
REMARK H PARENT
ROOT
ATOM      1  C   UNL     1     -26.967   8.704   6.941  1.00  0.00    +0.068 A 
ATOM      2  C   UNL     1     -28.139   9.298   7.449  1.00  0.00    +0.035 A 
ATOM      3  C   UNL     1     -28.619  10.503   6.924  1.00  0.00    +0.088 A 
ATOM      4  C   UNL     1     -27.924  11.125   5.882  1.00  0.00    +0.269 A 
ATOM      5  C   UNL     1     -26.757  10.548   5.366  1.00  0.00    +0.088 A 
ATOM      6  C   UNL     1     -26.282   9.340   5.896  1.00  0.00    +0.035 A 
ENDROOT
BRANCH   1   7
ATOM      7  N   UNL     1     -26.512   7.471   7.508  1.00  0.00    -0.215 N 
ATOM      8  C   UNL     1     -28.971   5.191   8.800  1.00  0.00    +0.130 A 
ATOM      9  N   UNL     1     -28.584   6.339   8.220  1.00  0.00    -0.213 NA
ATOM     10  N   UNL     1     -28.163   4.198   9.224  1.00  0.00    -0.215 NA
ATOM     11  C   UNL     1     -27.248   6.433   8.082  1.00  0.00    +0.168 A 
ATOM     12  C   UNL     1     -26.814   4.314   9.114  1.00  0.00    +0.143 A 
ATOM     13  C   UNL     1     -26.331   5.479   8.492  1.00  0.00    +0.082 A 
ATOM     14  C   UNL     1     -25.086   5.997   8.099  1.00  0.00    +0.150 A 
ATOM     15  N   UNL     1     -25.172   7.196   7.525  1.00  0.00    -0.174 NA
ATOM     16  C   UNL     1     -30.445   4.970   8.952  1.00  0.00    +0.090 C 
BRANCH  12  17
ATOM     17  N   UNL     1     -25.995   3.276   9.567  1.00  0.00    -0.356 N 
ATOM     18  C   UNL     1     -25.344   3.471  10.870  1.00  0.00    +0.118 C 
ATOM     19  C   UNL     1     -26.463   1.925   9.238  1.00  0.00    +0.118 C 
ATOM     20  C   UNL     1     -25.529   2.258  11.782  1.00  0.00    +0.022 C 
ATOM     21  C   UNL     1     -25.389   0.911   9.628  1.00  0.00    +0.022 C 
ATOM     22  C   UNL     1     -25.066   0.962  11.121  1.00  0.00    +0.004 C 
ENDBRANCH  12  17
ENDBRANCH   1   7
BRANCH   4  23
ATOM     23  N   UNL     1     -28.421  12.389   5.325  1.00  0.00    +0.062 N 
ATOM     24  O   UNL     1     -29.627  12.642   5.453  1.00  0.00    -0.258 OA
ATOM     25  O   UNL     1     -27.605  13.131   4.760  1.00  0.00    -0.258 OA
ENDBRANCH   4  23
TORSDOF 3
ENDMDL
MODEL 3
REMARK VINA RESULT:    -9.469      5.863      9.690
REMARK INTER + INTRA:         -11.546
REMARK INTER:                 -11.707
REMARK INTRA:                   0.161
REMARK UNBOUND:                -0.416
REMARK SMILES Cc1nc(N2CCCCC2)c2cnn(-c3ccc([N+](=O)[O-])cc3)c2n1
REMARK SMILES IDX 15 1 16 2 17 3 18 4 22 5 23 6 14 7 2 8 25 9 3 10 24 11 4 12
REMARK SMILES IDX 11 13 12 14 13 15 1 16 5 17 6 18 10 19 7 20 9 21 8 22 19 23
REMARK SMILES IDX 20 24 21 25
REMARK H PARENT
ROOT
ATOM      1  C   UNL     1     -32.396   6.228   8.041  1.00  0.00    +0.068 A 
ATOM      2  C   UNL     1     -33.477   5.865   7.214  1.00  0.00    +0.035 A 
ATOM      3  C   UNL     1     -34.293   4.776   7.536  1.00  0.00    +0.088 A 
ATOM      4  C   UNL     1     -34.030   4.037   8.694  1.00  0.00    +0.269 A 
ATOM      5  C   UNL     1     -32.959   4.385   9.527  1.00  0.00    +0.088 A 
ATOM      6  C   UNL     1     -32.146   5.479   9.199  1.00  0.00    +0.035 A 
ENDROOT
BRANCH   1   7
ATOM      7  N   UNL     1     -31.587   7.351   7.673  1.00  0.00    -0.215 N 
ATOM      8  C   UNL     1     -28.027   7.078   8.067  1.00  0.00    +0.130 A 
ATOM      9  N   UNL     1     -29.283   6.613   8.152  1.00  0.00    -0.213 NA
ATOM     10  N   UNL     1     -27.652   8.296   7.626  1.00  0.00    -0.215 NA
ATOM     11  C   UNL     1     -30.202   7.507   7.739  1.00  0.00    +0.168 A 
ATOM     12  C   UNL     1     -28.586   9.207   7.244  1.00  0.00    +0.143 A 
ATOM     13  C   UNL     1     -29.927   8.786   7.280  1.00  0.00    +0.082 A 
ATOM     14  C   UNL     1     -31.182   9.309   6.929  1.00  0.00    +0.150 A 
ATOM     15  N   UNL     1     -32.189   8.474   7.174  1.00  0.00    -0.174 NA
ATOM     16  C   UNL     1     -26.927   6.136   8.456  1.00  0.00    +0.090 C 
BRANCH  12  17
ATOM     17  N   UNL     1     -28.177  10.466   6.798  1.00  0.00    -0.356 N 
ATOM     18  C   UNL     1     -26.778  10.590   6.365  1.00  0.00    +0.118 C 
ATOM     19  C   UNL     1     -29.188  11.219   6.047  1.00  0.00    +0.118 C 
ATOM     20  C   UNL     1     -26.664  11.278   5.005  1.00  0.00    +0.022 C 
ATOM     21  C   UNL     1     -28.671  12.632   5.786  1.00  0.00    +0.022 C 
ATOM     22  C   UNL     1     -27.372  12.631   4.981  1.00  0.00    +0.004 C 
ENDBRANCH  12  17
ENDBRANCH   1   7
BRANCH   4  23
ATOM     23  N   UNL     1     -34.881   2.893   9.040  1.00  0.00    +0.062 N 
ATOM     24  O   UNL     1     -36.000   3.129   9.517  1.00  0.00    -0.258 OA
ATOM     25  O   UNL     1     -34.431   1.756   8.836  1.00  0.00    -0.258 OA
ENDBRANCH   4  23
TORSDOF 3
ENDMDL
MODEL 4
REMARK VINA RESULT:    -9.154      6.767      9.336
REMARK INTER + INTRA:         -11.175
REMARK INTER:                 -10.474
REMARK INTRA:                  -0.701
REMARK UNBOUND:                -0.416
REMARK SMILES Cc1nc(N2CCCCC2)c2cnn(-c3ccc([N+](=O)[O-])cc3)c2n1
REMARK SMILES IDX 15 1 16 2 17 3 18 4 22 5 23 6 14 7 2 8 25 9 3 10 24 11 4 12
REMARK SMILES IDX 11 13 12 14 13 15 1 16 5 17 6 18 10 19 7 20 9 21 8 22 19 23
REMARK SMILES IDX 20 24 21 25
REMARK H PARENT
ROOT
ATOM      1  C   UNL     1     -31.326   0.915  11.025  1.00  0.00    +0.068 A 
ATOM      2  C   UNL     1     -30.871   0.158   9.927  1.00  0.00    +0.035 A 
ATOM      3  C   UNL     1     -29.651  -0.523   9.980  1.00  0.00    +0.088 A 
ATOM      4  C   UNL     1     -28.871  -0.449  11.139  1.00  0.00    +0.269 A 
ATOM      5  C   UNL     1     -29.308   0.298  12.239  1.00  0.00    +0.088 A 
ATOM      6  C   UNL     1     -30.533   0.977  12.180  1.00  0.00    +0.035 A 
ENDROOT
BRANCH   1   7
ATOM      7  N   UNL     1     -32.582   1.595  10.927  1.00  0.00    -0.215 N 
ATOM      8  C   UNL     1     -32.659   4.781   9.269  1.00  0.00    +0.130 A 
ATOM      9  N   UNL     1     -32.042   3.680   9.727  1.00  0.00    -0.213 NA
ATOM     10  N   UNL     1     -33.971   5.071   9.387  1.00  0.00    -0.215 NA
ATOM     11  C   UNL     1     -32.879   2.832  10.353  1.00  0.00    +0.168 A 
ATOM     12  C   UNL     1     -34.805   4.227  10.051  1.00  0.00    +0.143 A 
ATOM     13  C   UNL     1     -34.237   3.037  10.539  1.00  0.00    +0.082 A 
ATOM     14  C   UNL     1     -34.680   1.875  11.192  1.00  0.00    +0.150 A 
ATOM     15  N   UNL     1     -33.702   1.009  11.449  1.00  0.00    -0.174 NA
ATOM     16  C   UNL     1     -31.819   5.764   8.511  1.00  0.00    +0.090 C 
BRANCH  12  17
ATOM     17  N   UNL     1     -36.159   4.549  10.169  1.00  0.00    -0.356 N 
ATOM     18  C   UNL     1     -36.511   5.550  11.185  1.00  0.00    +0.118 C 
ATOM     19  C   UNL     1     -36.905   4.574   8.906  1.00  0.00    +0.118 C 
ATOM     20  C   UNL     1     -37.424   6.637  10.618  1.00  0.00    +0.022 C 
ATOM     21  C   UNL     1     -38.392   4.757   9.204  1.00  0.00    +0.022 C 
ATOM     22  C   UNL     1     -38.672   6.057   9.958  1.00  0.00    +0.004 C 
ENDBRANCH  12  17
ENDBRANCH   1   7
BRANCH   4  23
ATOM     23  N   UNL     1     -27.589  -1.161  11.203  1.00  0.00    +0.062 N 
ATOM     24  O   UNL     1     -27.281  -1.700  12.276  1.00  0.00    -0.258 OA
ATOM     25  O   UNL     1     -26.888  -1.182  10.181  1.00  0.00    -0.258 OA
ENDBRANCH   4  23
TORSDOF 3
ENDMDL
MODEL 5
REMARK VINA RESULT:    -9.065      1.337      2.994
REMARK INTER + INTRA:         -11.071
REMARK INTER:                 -10.765
REMARK INTRA:                  -0.306
REMARK UNBOUND:                -0.416
REMARK SMILES Cc1nc(N2CCCCC2)c2cnn(-c3ccc([N+](=O)[O-])cc3)c2n1
REMARK SMILES IDX 15 1 16 2 17 3 18 4 22 5 23 6 14 7 2 8 25 9 3 10 24 11 4 12
REMARK SMILES IDX 11 13 12 14 13 15 1 16 5 17 6 18 10 19 7 20 9 21 8 22 19 23
REMARK SMILES IDX 20 24 21 25
REMARK H PARENT
ROOT
ATOM      1  C   UNL     1     -26.566   5.612   8.079  1.00  0.00    +0.068 A 
ATOM      2  C   UNL     1     -27.528   6.640   8.029  1.00  0.00    +0.035 A 
ATOM      3  C   UNL     1     -27.301   7.800   7.280  1.00  0.00    +0.088 A 
ATOM      4  C   UNL     1     -26.103   7.939   6.573  1.00  0.00    +0.269 A 
ATOM      5  C   UNL     1     -25.136   6.926   6.613  1.00  0.00    +0.088 A 
ATOM      6  C   UNL     1     -25.370   5.766   7.364  1.00  0.00    +0.035 A 
ENDROOT
BRANCH   1   7
ATOM      7  N   UNL     1     -26.841   4.442   8.858  1.00  0.00    -0.215 N 
ATOM      8  C   UNL     1     -30.274   3.605   9.507  1.00  0.00    +0.130 A 
ATOM      9  N   UNL     1     -29.303   4.370   8.983  1.00  0.00    -0.213 NA
ATOM     10  N   UNL     1     -30.104   2.486  10.240  1.00  0.00    -0.215 NA
ATOM     11  C   UNL     1     -28.067   3.911   9.259  1.00  0.00    +0.168 A 
ATOM     12  C   UNL     1     -28.854   2.047  10.545  1.00  0.00    +0.143 A 
ATOM     13  C   UNL     1     -27.781   2.781  10.010  1.00  0.00    +0.082 A 
ATOM     14  C   UNL     1     -26.380   2.687   9.981  1.00  0.00    +0.150 A 
ATOM     15  N   UNL     1     -25.799   3.681   9.312  1.00  0.00    -0.174 NA
ATOM     16  C   UNL     1     -31.687   4.007   9.211  1.00  0.00    +0.090 C 
BRANCH  12  17
ATOM     17  N   UNL     1     -28.700   0.890  11.312  1.00  0.00    -0.356 N 
ATOM     18  C   UNL     1     -28.347  -0.339  10.588  1.00  0.00    +0.118 C 
ATOM     19  C   UNL     1     -28.095   1.095  12.633  1.00  0.00    +0.118 C 
ATOM     20  C   UNL     1     -27.169  -1.063  11.240  1.00  0.00    +0.022 C 
ATOM     21  C   UNL     1     -28.157  -0.211  13.423  1.00  0.00    +0.022 C 
ATOM     22  C   UNL     1     -27.412  -1.345  12.720  1.00  0.00    +0.004 C 
ENDBRANCH  12  17
ENDBRANCH   1   7
BRANCH   4  23
ATOM     23  N   UNL     1     -25.856   9.152   5.785  1.00  0.00    +0.062 N 
ATOM     24  O   UNL     1     -25.042   9.974   6.229  1.00  0.00    -0.258 OA
ATOM     25  O   UNL     1     -26.477   9.284   4.720  1.00  0.00    -0.258 OA
ENDBRANCH   4  23
TORSDOF 3
ENDMDL
MODEL 6
REMARK VINA RESULT:    -8.659      5.345      9.365
REMARK INTER + INTRA:         -10.594
REMARK INTER:                 -10.696
REMARK INTRA:                   0.103
REMARK UNBOUND:                -0.416
REMARK SMILES Cc1nc(N2CCCCC2)c2cnn(-c3ccc([N+](=O)[O-])cc3)c2n1
REMARK SMILES IDX 15 1 16 2 17 3 18 4 22 5 23 6 14 7 2 8 25 9 3 10 24 11 4 12
REMARK SMILES IDX 11 13 12 14 13 15 1 16 5 17 6 18 10 19 7 20 9 21 8 22 19 23
REMARK SMILES IDX 20 24 21 25
REMARK H PARENT
ROOT
ATOM      1  C   UNL     1     -31.848   4.936   9.115  1.00  0.00    +0.068 A 
ATOM      2  C   UNL     1     -33.094   4.942   9.775  1.00  0.00    +0.035 A 
ATOM      3  C   UNL     1     -33.554   3.806  10.449  1.00  0.00    +0.088 A 
ATOM      4  C   UNL     1     -32.768   2.650  10.466  1.00  0.00    +0.269 A 
ATOM      5  C   UNL     1     -31.528   2.627   9.816  1.00  0.00    +0.088 A 
ATOM      6  C   UNL     1     -31.072   3.769   9.143  1.00  0.00    +0.035 A 
ENDROOT
BRANCH   1   7
ATOM      7  N   UNL     1     -31.417   6.121   8.438  1.00  0.00    -0.215 N 
ATOM      8  C   UNL     1     -27.885   6.717   8.149  1.00  0.00    +0.130 A 
ATOM      9  N   UNL     1     -28.956   6.011   8.548  1.00  0.00    -0.213 NA
ATOM     10  N   UNL     1     -27.903   7.885   7.475  1.00  0.00    -0.215 NA
ATOM     11  C   UNL     1     -30.123   6.588   8.204  1.00  0.00    +0.168 A 
ATOM     12  C   UNL     1     -29.084   8.480   7.161  1.00  0.00    +0.143 A 
ATOM     13  C   UNL     1     -30.253   7.788   7.523  1.00  0.00    +0.082 A 
ATOM     14  C   UNL     1     -31.638   7.949   7.359  1.00  0.00    +0.150 A 
ATOM     15  N   UNL     1     -32.352   6.972   7.915  1.00  0.00    -0.174 NA
ATOM     16  C   UNL     1     -26.538   6.129   8.441  1.00  0.00    +0.090 C 
BRANCH  12  17
ATOM     17  N   UNL     1     -29.080   9.694   6.469  1.00  0.00    -0.356 N 
ATOM     18  C   UNL     1     -30.283  10.527   6.594  1.00  0.00    +0.118 C 
ATOM     19  C   UNL     1     -27.783  10.379   6.421  1.00  0.00    +0.118 C 
ATOM     20  C   UNL     1     -29.937  11.976   6.940  1.00  0.00    +0.022 C 
ATOM     21  C   UNL     1     -27.885  11.584   5.488  1.00  0.00    +0.022 C 
ATOM     22  C   UNL     1     -28.944  12.583   5.952  1.00  0.00    +0.004 C 
ENDBRANCH  12  17
ENDBRANCH   1   7
BRANCH   4  23
ATOM     23  N   UNL     1     -33.243   1.454  11.172  1.00  0.00    +0.062 N 
ATOM     24  O   UNL     1     -33.524   0.456  10.493  1.00  0.00    -0.258 OA
ATOM     25  O   UNL     1     -33.336   1.511  12.406  1.00  0.00    -0.258 OA
ENDBRANCH   4  23
TORSDOF 3
ENDMDL
MODEL 7
REMARK VINA RESULT:    -8.595      2.312      4.065
REMARK INTER + INTRA:         -10.519
REMARK INTER:                 -10.392
REMARK INTRA:                  -0.127
REMARK UNBOUND:                -0.416
REMARK SMILES Cc1nc(N2CCCCC2)c2cnn(-c3ccc([N+](=O)[O-])cc3)c2n1
REMARK SMILES IDX 15 1 16 2 17 3 18 4 22 5 23 6 14 7 2 8 25 9 3 10 24 11 4 12
REMARK SMILES IDX 11 13 12 14 13 15 1 16 5 17 6 18 10 19 7 20 9 21 8 22 19 23
REMARK SMILES IDX 20 24 21 25
REMARK H PARENT
ROOT
ATOM      1  C   UNL     1     -26.796   3.395  10.221  1.00  0.00    +0.068 A 
ATOM      2  C   UNL     1     -25.510   3.945  10.389  1.00  0.00    +0.035 A 
ATOM      3  C   UNL     1     -25.055   4.974   9.557  1.00  0.00    +0.088 A 
ATOM      4  C   UNL     1     -25.889   5.461   8.546  1.00  0.00    +0.269 A 
ATOM      5  C   UNL     1     -27.170   4.925   8.365  1.00  0.00    +0.088 A 
ATOM      6  C   UNL     1     -27.620   3.895   9.203  1.00  0.00    +0.035 A 
ENDROOT
BRANCH   1   7
ATOM      7  N   UNL     1     -27.221   2.344  11.096  1.00  0.00    -0.215 N 
ATOM      8  C   UNL     1     -30.678   1.370  11.023  1.00  0.00    +0.130 A 
ATOM      9  N   UNL     1     -29.631   2.113  10.630  1.00  0.00    -0.213 NA
ATOM     10  N   UNL     1     -30.662   0.394  11.953  1.00  0.00    -0.215 NA
ATOM     11  C   UNL     1     -28.491   1.793  11.270  1.00  0.00    +0.168 A 
ATOM     12  C   UNL     1     -29.516   0.099  12.622  1.00  0.00    +0.143 A 
ATOM     13  C   UNL     1     -28.367   0.818  12.247  1.00  0.00    +0.082 A 
ATOM     14  C   UNL     1     -27.002   0.823  12.576  1.00  0.00    +0.150 A 
ATOM     15  N   UNL     1     -26.302   1.740  11.911  1.00  0.00    -0.174 NA
ATOM     16  C   UNL     1     -31.984   1.617  10.330  1.00  0.00    +0.090 C 
BRANCH  12  17
ATOM     17  N   UNL     1     -29.523  -0.911  13.587  1.00  0.00    -0.356 N 
ATOM     18  C   UNL     1     -28.932  -0.579  14.891  1.00  0.00    +0.118 C 
ATOM     19  C   UNL     1     -30.712  -1.770  13.580  1.00  0.00    +0.118 C 
ATOM     20  C   UNL     1     -29.853  -0.973  16.047  1.00  0.00    +0.022 C 
ATOM     21  C   UNL     1     -30.501  -2.928  14.554  1.00  0.00    +0.022 C 
ATOM     22  C   UNL     1     -30.263  -2.442  15.983  1.00  0.00    +0.004 C 
ENDBRANCH  12  17
ENDBRANCH   1   7
BRANCH   4  23
ATOM     23  N   UNL     1     -25.420   6.540   7.668  1.00  0.00    +0.062 N 
ATOM     24  O   UNL     1     -24.502   7.262   8.082  1.00  0.00    -0.258 OA
ATOM     25  O   UNL     1     -25.969   6.667   6.565  1.00  0.00    -0.258 OA
ENDBRANCH   4  23
TORSDOF 3
ENDMDL
MODEL 8
REMARK VINA RESULT:    -8.277      2.159      3.417
REMARK INTER + INTRA:         -10.145
REMARK INTER:                  -9.674
REMARK INTRA:                  -0.471
REMARK UNBOUND:                -0.416
REMARK SMILES Cc1nc(N2CCCCC2)c2cnn(-c3ccc([N+](=O)[O-])cc3)c2n1
REMARK SMILES IDX 15 1 16 2 17 3 18 4 22 5 23 6 14 7 2 8 25 9 3 10 24 11 4 12
REMARK SMILES IDX 11 13 12 14 13 15 1 16 5 17 6 18 10 19 7 20 9 21 8 22 19 23
REMARK SMILES IDX 20 24 21 25
REMARK H PARENT
ROOT
ATOM      1  C   UNL     1     -26.876   3.359  10.321  1.00  0.00    +0.068 A 
ATOM      2  C   UNL     1     -25.592   3.925  10.453  1.00  0.00    +0.035 A 
ATOM      3  C   UNL     1     -25.146   4.906   9.562  1.00  0.00    +0.088 A 
ATOM      4  C   UNL     1     -25.985   5.329   8.526  1.00  0.00    +0.269 A 
ATOM      5  C   UNL     1     -27.264   4.776   8.381  1.00  0.00    +0.088 A 
ATOM      6  C   UNL     1     -27.706   3.794   9.278  1.00  0.00    +0.035 A 
ENDROOT
BRANCH   1   7
ATOM      7  N   UNL     1     -27.292   2.358  11.256  1.00  0.00    -0.215 N 
ATOM      8  C   UNL     1     -26.372  -1.054  10.608  1.00  0.00    +0.130 A 
ATOM      9  N   UNL     1     -26.405   0.256  10.318  1.00  0.00    -0.213 NA
ATOM     10  N   UNL     1     -26.933  -1.652  11.679  1.00  0.00    -0.215 NA
ATOM     11  C   UNL     1     -27.081   0.978  11.233  1.00  0.00    +0.168 A 
ATOM     12  C   UNL     1     -27.643  -0.923  12.580  1.00  0.00    +0.143 A 
ATOM     13  C   UNL     1     -27.703   0.464  12.360  1.00  0.00    +0.082 A 
ATOM     14  C   UNL     1     -28.225   1.591  13.016  1.00  0.00    +0.150 A 
ATOM     15  N   UNL     1     -28.005   2.730  12.363  1.00  0.00    -0.174 NA
ATOM     16  C   UNL     1     -25.598  -1.936   9.675  1.00  0.00    +0.090 C 
BRANCH  12  17
ATOM     17  N   UNL     1     -28.223  -1.563  13.678  1.00  0.00    -0.356 N 
ATOM     18  C   UNL     1     -28.016  -0.935  14.990  1.00  0.00    +0.118 C 
ATOM     19  C   UNL     1     -29.528  -2.181  13.421  1.00  0.00    +0.118 C 
ATOM     20  C   UNL     1     -29.327  -0.794  15.764  1.00  0.00    +0.022 C 
ATOM     21  C   UNL     1     -29.951  -2.992  14.645  1.00  0.00    +0.022 C 
ATOM     22  C   UNL     1     -30.065  -2.124  15.898  1.00  0.00    +0.004 C 
ENDBRANCH  12  17
ENDBRANCH   1   7
BRANCH   4  23
ATOM     23  N   UNL     1     -25.525   6.358   7.587  1.00  0.00    +0.062 N 
ATOM     24  O   UNL     1     -26.081   7.465   7.625  1.00  0.00    -0.258 OA
ATOM     25  O   UNL     1     -24.606   6.061   6.810  1.00  0.00    -0.258 OA
ENDBRANCH   4  23
TORSDOF 3
ENDMDL
MODEL 9
REMARK VINA RESULT:    -8.109      4.416      6.825
REMARK INTER + INTRA:          -9.947
REMARK INTER:                 -10.116
REMARK INTRA:                   0.169
REMARK UNBOUND:                -0.416
REMARK SMILES Cc1nc(N2CCCCC2)c2cnn(-c3ccc([N+](=O)[O-])cc3)c2n1
REMARK SMILES IDX 15 1 16 2 17 3 18 4 22 5 23 6 14 7 2 8 25 9 3 10 24 11 4 12
REMARK SMILES IDX 11 13 12 14 13 15 1 16 5 17 6 18 10 19 7 20 9 21 8 22 19 23
REMARK SMILES IDX 20 24 21 25
REMARK H PARENT
ROOT
ATOM      1  C   UNL     1     -31.006   2.041  10.599  1.00  0.00    +0.068 A 
ATOM      2  C   UNL     1     -31.390   2.929   9.574  1.00  0.00    +0.035 A 
ATOM      3  C   UNL     1     -32.738   3.225   9.349  1.00  0.00    +0.088 A 
ATOM      4  C   UNL     1     -33.717   2.631  10.152  1.00  0.00    +0.269 A 
ATOM      5  C   UNL     1     -33.353   1.747  11.175  1.00  0.00    +0.088 A 
ATOM      6  C   UNL     1     -32.000   1.454  11.395  1.00  0.00    +0.035 A 
ENDROOT
BRANCH   1   7
ATOM      7  N   UNL     1     -29.615   1.766  10.793  1.00  0.00    -0.215 N 
ATOM      8  C   UNL     1     -27.222   3.941   9.227  1.00  0.00    +0.130 A 
ATOM      9  N   UNL     1     -28.470   3.535   9.513  1.00  0.00    -0.213 NA
ATOM     10  N   UNL     1     -26.077   3.361   9.642  1.00  0.00    -0.215 NA
ATOM     11  C   UNL     1     -28.499   2.438  10.293  1.00  0.00    +0.168 A 
ATOM     12  C   UNL     1     -26.113   2.234  10.400  1.00  0.00    +0.143 A 
ATOM     13  C   UNL     1     -27.385   1.760  10.763  1.00  0.00    +0.082 A 
ATOM     14  C   UNL     1     -27.914   0.729  11.558  1.00  0.00    +0.150 A 
ATOM     15  N   UNL     1     -29.245   0.705  11.573  1.00  0.00    -0.174 NA
ATOM     16  C   UNL     1     -27.085   5.187   8.405  1.00  0.00    +0.090 C 
BRANCH  12  17
ATOM     17  N   UNL     1     -24.915   1.644  10.812  1.00  0.00    -0.356 N 
ATOM     18  C   UNL     1     -24.922   0.184  10.977  1.00  0.00    +0.118 C 
ATOM     19  C   UNL     1     -23.699   2.259  10.269  1.00  0.00    +0.118 C 
ATOM     20  C   UNL     1     -23.733  -0.471  10.273  1.00  0.00    +0.022 C 
ATOM     21  C   UNL     1     -22.477   1.638  10.941  1.00  0.00    +0.022 C 
ATOM     22  C   UNL     1     -22.400   0.128  10.713  1.00  0.00    +0.004 C 
ENDBRANCH  12  17
ENDBRANCH   1   7
BRANCH   4  23
ATOM     23  N   UNL     1     -35.134   2.937   9.924  1.00  0.00    +0.062 N 
ATOM     24  O   UNL     1     -35.651   3.828  10.613  1.00  0.00    -0.258 OA
ATOM     25  O   UNL     1     -35.732   2.287   9.054  1.00  0.00    -0.258 OA
ENDBRANCH   4  23
TORSDOF 3
ENDMDL
