REMARK SMILES CCc1cccc(CC)c1Nc1nc(C)nc2c1cnn2C
REMARK SMILES IDX 3 1 10 2 7 3 6 4 5 5 4 6 2 7 1 8 11 9 12 11 18 12 13 13
REMARK SMILES IDX 19 14 17 15 14 16 20 17 21 18 16 19 15 20 22 21 8 22 9 23
REMARK H PARENT 11 10
ROOT
ATOM      1  C   UNL     1      -2.503   0.867   0.978  1.00  0.00    -0.024 A 
ATOM      2  C   UNL     1      -1.698   0.011   0.188  1.00  0.00    +0.046 A 
ATOM      3  C   UNL     1      -1.841  -1.391   0.317  1.00  0.00    -0.024 A 
ATOM      4  C   UNL     1      -2.724  -1.904   1.285  1.00  0.00    +0.006 A 
ATOM      5  C   UNL     1      -3.469  -1.057   2.099  1.00  0.00    +0.001 A 
ATOM      6  C   UNL     1      -3.365   0.320   1.942  1.00  0.00    +0.006 A 
ENDROOT
BRANCH   1   7
ATOM      7  C   UNL     1      -2.446   2.374   0.841  1.00  0.00    +0.034 C 
ATOM      8  C   UNL     1      -1.382   2.996   1.732  1.00  0.00    +0.009 C 
ENDBRANCH   1   7
BRANCH   2   9
ATOM      9  N   UNL     1      -0.858   0.594  -0.786  1.00  0.00    -0.339 N 
ATOM     10  H   UNL     1      -1.247   0.528  -1.722  1.00  0.00    +0.168 HD
BRANCH   9  11
ATOM     11  C   UNL     1       0.534   0.461  -0.891  1.00  0.00    +0.145 A 
ATOM     12  C   UNL     1       1.415   0.255   0.175  1.00  0.00    +0.082 A 
ATOM     13  N   UNL     1       1.060   0.552  -2.139  1.00  0.00    -0.215 NA
ATOM     14  C   UNL     1       1.363   0.103   1.577  1.00  0.00    +0.149 A 
ATOM     15  C   UNL     1       2.760   0.152  -0.129  1.00  0.00    +0.163 A 
ATOM     16  C   UNL     1       2.398   0.446  -2.310  1.00  0.00    +0.130 A 
ATOM     17  N   UNL     1       2.568  -0.083   2.129  1.00  0.00    -0.179 NA
ATOM     18  N   UNL     1       3.401  -0.047   1.063  1.00  0.00    -0.250 N 
ATOM     19  N   UNL     1       3.316   0.231  -1.349  1.00  0.00    -0.214 NA
ATOM     20  C   UNL     1       2.903   0.530  -3.719  1.00  0.00    +0.090 C 
ATOM     21  C   UNL     1       4.818  -0.213   1.268  1.00  0.00    +0.176 C 
ENDBRANCH   9  11
ENDBRANCH   2   9
BRANCH   3  22
ATOM     22  C   UNL     1      -1.130  -2.388  -0.575  1.00  0.00    +0.034 C 
ATOM     23  C   UNL     1      -1.818  -2.546  -1.923  1.00  0.00    +0.009 C 
ENDBRANCH   3  22
TORSDOF 4
