REMARK SMILES Cc1c2ccccc2nc2ccccc12
REMARK SMILES IDX 1 1 2 2 3 3 4 4 5 5 6 6 7 7 8 8 9 9 10 10 15 11 14 12 13 13
REMARK SMILES IDX 12 14 11 15
REMARK H PARENT
ROOT
ATOM      1  C   UNL     1       0.108  -2.507   0.208  1.00  0.00    +0.046 C 
ATOM      2  C   UNL     1       0.045  -1.000   0.115  1.00  0.00    -0.032 A 
ATOM      3  C   UNL     1      -1.210  -0.328   0.171  1.00  0.00    +0.004 A 
ATOM      4  C   UNL     1      -2.469  -0.972   0.281  1.00  0.00    +0.010 A 
ATOM      5  C   UNL     1      -3.660  -0.248   0.343  1.00  0.00    +0.001 A 
ATOM      6  C   UNL     1      -3.620   1.136   0.292  1.00  0.00    +0.002 A 
ATOM      7  C   UNL     1      -2.389   1.781   0.173  1.00  0.00    +0.029 A 
ATOM      8  C   UNL     1      -1.192   1.080   0.106  1.00  0.00    +0.071 A 
ATOM      9  N   UNL     1      -0.067   1.794  -0.026  1.00  0.00    -0.248 NA
ATOM     10  C   UNL     1       1.107   1.161  -0.128  1.00  0.00    +0.071 A 
ATOM     11  C   UNL     1       1.236  -0.242  -0.077  1.00  0.00    +0.004 A 
ATOM     12  C   UNL     1       2.534  -0.796  -0.227  1.00  0.00    +0.010 A 
ATOM     13  C   UNL     1       3.659   0.010  -0.401  1.00  0.00    +0.001 A 
ATOM     14  C   UNL     1       3.513   1.387  -0.432  1.00  0.00    +0.002 A 
ATOM     15  C   UNL     1       2.242   1.944  -0.298  1.00  0.00    +0.029 A 
ENDROOT
TORSDOF 0
