REMARK SMILES Cc1ccc2c(c1Cl)C(=O)c1ccccc1C2=O
REMARK SMILES IDX 1 1 2 2 7 3 8 4 6 5 5 6 4 7 3 8 17 9 18 10 16 11 11 12 12 13
REMARK SMILES IDX 13 14 14 15 15 16 9 17 10 18
REMARK H PARENT
ROOT
ATOM      1  C   UNL     1      -4.568  -0.006  -0.726  1.00  0.00    +0.046 C 
ATOM      2  C   UNL     1      -3.138   0.233  -0.312  1.00  0.00    -0.032 A 
ATOM      3  C   UNL     1      -2.066  -0.546  -0.814  1.00  0.00    +0.055 A 
ATOM      4 Cl   UNL     1      -2.465  -1.807  -1.942  1.00  0.00    -0.083 Cl
ATOM      5  C   UNL     1      -0.738  -0.289  -0.400  1.00  0.00    +0.053 A 
ATOM      6  C   UNL     1      -0.509   0.749   0.514  1.00  0.00    +0.035 A 
ATOM      7  C   UNL     1      -1.571   1.518   1.009  1.00  0.00    +0.013 A 
ATOM      8  C   UNL     1      -2.874   1.262   0.599  1.00  0.00    +0.006 A 
ATOM      9  C   UNL     1       0.851   1.076   0.993  1.00  0.00    +0.194 C 
ATOM     10  O   UNL     1       1.025   1.988   1.792  1.00  0.00    -0.289 OA
ATOM     11  C   UNL     1       1.996   0.297   0.503  1.00  0.00    +0.034 A 
ATOM     12  C   UNL     1       1.796  -0.736  -0.403  1.00  0.00    +0.034 A 
ATOM     13  C   UNL     1       2.898  -1.473  -0.864  1.00  0.00    +0.013 A 
ATOM     14  C   UNL     1       4.186  -1.170  -0.417  1.00  0.00    +0.001 A 
ATOM     15  C   UNL     1       4.381  -0.133   0.492  1.00  0.00    +0.001 A 
ATOM     16  C   UNL     1       3.288   0.602   0.953  1.00  0.00    +0.013 A 
ATOM     17  C   UNL     1       0.438  -1.068  -0.885  1.00  0.00    +0.196 C 
ATOM     18  O   UNL     1       0.335  -1.991  -1.683  1.00  0.00    -0.289 OA
ENDROOT
TORSDOF 0
