REMARK SMILES Clc1ccc(-n2ncc3c(Cl)nc(Cl)nc32)cc1
REMARK SMILES IDX 6 1 7 2 8 3 9 4 10 5 11 6 12 7 13 8 14 9 15 10 16 11 5 12
REMARK SMILES IDX 2 13 3 14 18 15 4 16 17 17 1 18
REMARK H PARENT
ROOT
ATOM      1  N   UNL     1      -0.294  -0.665   0.136  1.00  0.00    -0.215 N 
ATOM      2  N   UNL     1      -0.583  -1.984   0.361  1.00  0.00    -0.174 NA
ATOM      3  C   UNL     1      -1.898  -2.019   0.569  1.00  0.00    +0.149 A 
ATOM      4  C   UNL     1      -2.493  -0.755   0.489  1.00  0.00    +0.077 A 
ATOM      5  C   UNL     1      -3.744  -0.180   0.604  1.00  0.00    +0.145 A 
ATOM      6 Cl   UNL     1      -5.074  -1.174   0.945  1.00  0.00    -0.061 Cl
ATOM      7  N   UNL     1      -3.947   1.132   0.456  1.00  0.00    -0.205 NA
ATOM      8  C   UNL     1      -2.857   1.858   0.188  1.00  0.00    +0.225 A 
ATOM      9 Cl   UNL     1      -3.112   3.538  -0.002  1.00  0.00    -0.041 Cl
ATOM     10  N   UNL     1      -1.584   1.449   0.047  1.00  0.00    -0.198 NA
ATOM     11  C   UNL     1      -1.450   0.115   0.208  1.00  0.00    +0.169 A 
ENDROOT
BRANCH   1  12
ATOM     12  C   UNL     1       1.054  -0.271  -0.126  1.00  0.00    +0.067 A 
ATOM     13  C   UNL     1       3.726   0.424  -0.634  1.00  0.00    +0.041 A 
ATOM     14  C   UNL     1       2.740   1.408  -0.616  1.00  0.00    +0.023 A 
ATOM     15  C   UNL     1       3.391  -0.906  -0.401  1.00  0.00    +0.023 A 
ATOM     16  C   UNL     1       1.407   1.064  -0.363  1.00  0.00    +0.030 A 
ATOM     17  C   UNL     1       2.061  -1.254  -0.148  1.00  0.00    +0.030 A 
ATOM     18 Cl   UNL     1       5.361   0.855  -0.946  1.00  0.00    -0.084 Cl
ENDBRANCH   1  12
TORSDOF 1
