MODEL 1
REMARK VINA RESULT:    -8.860      0.000      0.000
REMARK INTER + INTRA:         -11.143
REMARK INTER:                 -10.673
REMARK INTRA:                  -0.471
REMARK UNBOUND:                -0.471
REMARK SMILES O=C(O)CCn1c2ccccc2c2ccccc21
REMARK SMILES IDX 2 1 1 2 3 3 4 5 5 6 6 7 7 8 18 9 12 10 8 11 17 12 13 13
REMARK SMILES IDX 11 14 9 15 16 16 14 17 10 18 15 19
REMARK H PARENT 3 4
ROOT
ATOM      1  C   UNL     1     -32.527   8.342   7.363  1.00  0.00    +0.305 C 
ATOM      2  O   UNL     1     -32.273   7.190   7.672  1.00  0.00    -0.252 OA
ENDROOT
BRANCH   1   3
ATOM      3  O   UNL     1     -33.685   8.916   7.739  1.00  0.00    -0.481 OA
ATOM      4  H   UNL     1     -34.314   8.170   7.832  1.00  0.00    +0.296 HD
ENDBRANCH   1   3
BRANCH   1   5
ATOM      5  C   UNL     1     -31.669   9.274   6.564  1.00  0.00    +0.144 C 
BRANCH   5   6
ATOM      6  C   UNL     1     -30.730  10.039   7.485  1.00  0.00    +0.134 C 
BRANCH   6   7
ATOM      7  N   UNL     1     -29.349   9.962   7.029  1.00  0.00    -0.340 N 
ATOM      8  C   UNL     1     -28.510   8.887   7.250  1.00  0.00    +0.049 A 
ATOM      9  C   UNL     1     -28.708  10.950   6.306  1.00  0.00    +0.049 A 
ATOM     10  C   UNL     1     -27.287   9.199   6.653  1.00  0.00    +0.007 A 
ATOM     11  C   UNL     1     -28.719   7.667   7.916  1.00  0.00    +0.027 A 
ATOM     12  C   UNL     1     -29.154  12.201   5.843  1.00  0.00    +0.027 A 
ATOM     13  C   UNL     1     -27.411  10.495   6.060  1.00  0.00    +0.007 A 
ATOM     14  C   UNL     1     -26.234   8.263   6.729  1.00  0.00    +0.011 A 
ATOM     15  C   UNL     1     -27.661   6.757   7.976  1.00  0.00    +0.002 A 
ATOM     16  C   UNL     1     -28.260  12.997   5.123  1.00  0.00    +0.002 A 
ATOM     17  C   UNL     1     -26.528  11.320   5.331  1.00  0.00    +0.011 A 
ATOM     18  C   UNL     1     -26.433   7.048   7.392  1.00  0.00    +0.001 A 
ATOM     19  C   UNL     1     -26.963  12.565   4.869  1.00  0.00    +0.001 A 
ENDBRANCH   6   7
ENDBRANCH   5   6
ENDBRANCH   1   5
TORSDOF 4
ENDMDL
MODEL 2
REMARK VINA RESULT:    -8.833      0.381      3.786
REMARK INTER + INTRA:         -11.111
REMARK INTER:                 -10.611
REMARK INTRA:                  -0.500
REMARK UNBOUND:                -0.471
REMARK SMILES O=C(O)CCn1c2ccccc2c2ccccc21
REMARK SMILES IDX 2 1 1 2 3 3 4 5 5 6 6 7 7 8 18 9 12 10 8 11 17 12 13 13
REMARK SMILES IDX 11 14 9 15 16 16 14 17 10 18 15 19
REMARK H PARENT 3 4
ROOT
ATOM      1  C   UNL     1     -32.497   7.881   7.142  1.00  0.00    +0.305 C 
ATOM      2  O   UNL     1     -32.143   6.715   7.141  1.00  0.00    -0.252 OA
ENDROOT
BRANCH   1   3
ATOM      3  O   UNL     1     -33.676   8.242   7.684  1.00  0.00    -0.481 OA
ATOM      4  H   UNL     1     -34.043   7.412   8.054  1.00  0.00    +0.296 HD
ENDBRANCH   1   3
BRANCH   1   5
ATOM      5  C   UNL     1     -31.752   9.055   6.585  1.00  0.00    +0.144 C 
BRANCH   5   6
ATOM      6  C   UNL     1     -30.803   9.618   7.633  1.00  0.00    +0.134 C 
BRANCH   6   7
ATOM      7  N   UNL     1     -29.431   9.664   7.148  1.00  0.00    -0.340 N 
ATOM      8  C   UNL     1     -28.883  10.720   6.447  1.00  0.00    +0.049 A 
ATOM      9  C   UNL     1     -28.500   8.660   7.338  1.00  0.00    +0.049 A 
ATOM     10  C   UNL     1     -27.556  10.380   6.173  1.00  0.00    +0.007 A 
ATOM     11  C   UNL     1     -29.434  11.946   6.033  1.00  0.00    +0.027 A 
ATOM     12  C   UNL     1     -28.593   7.419   7.992  1.00  0.00    +0.027 A 
ATOM     13  C   UNL     1     -27.316   9.087   6.733  1.00  0.00    +0.007 A 
ATOM     14  C   UNL     1     -26.754  11.294   5.457  1.00  0.00    +0.011 A 
ATOM     15  C   UNL     1     -28.617  12.833   5.327  1.00  0.00    +0.002 A 
ATOM     16  C   UNL     1     -27.460   6.602   8.024  1.00  0.00    +0.002 A 
ATOM     17  C   UNL     1     -26.186   8.241   6.779  1.00  0.00    +0.011 A 
ATOM     18  C   UNL     1     -27.294  12.513   5.041  1.00  0.00    +0.001 A 
ATOM     19  C   UNL     1     -26.271   7.005   7.425  1.00  0.00    +0.001 A 
ENDBRANCH   6   7
ENDBRANCH   5   6
ENDBRANCH   1   5
TORSDOF 4
ENDMDL
MODEL 3
REMARK VINA RESULT:    -7.343      6.553      9.422
REMARK INTER + INTRA:          -9.316
REMARK INTER:                  -8.880
REMARK INTRA:                  -0.436
REMARK UNBOUND:                -0.471
REMARK SMILES O=C(O)CCn1c2ccccc2c2ccccc21
REMARK SMILES IDX 2 1 1 2 3 3 4 5 5 6 6 7 7 8 18 9 12 10 8 11 17 12 13 13
REMARK SMILES IDX 11 14 9 15 16 16 14 17 10 18 15 19
REMARK H PARENT 3 4
ROOT
ATOM      1  C   UNL     1     -34.380   1.598   9.658  1.00  0.00    +0.305 C 
ATOM      2  O   UNL     1     -33.269   1.427   9.184  1.00  0.00    -0.252 OA
ENDROOT
BRANCH   1   3
ATOM      3  O   UNL     1     -35.485   1.347   8.930  1.00  0.00    -0.481 OA
ATOM      4  H   UNL     1     -36.121   2.044   9.196  1.00  0.00    +0.296 HD
ENDBRANCH   1   3
BRANCH   1   5
ATOM      5  C   UNL     1     -34.712   2.081  11.036  1.00  0.00    +0.144 C 
BRANCH   5   6
ATOM      6  C   UNL     1     -34.272   3.528  11.203  1.00  0.00    +0.134 C 
BRANCH   6   7
ATOM      7  N   UNL     1     -34.939   4.406  10.251  1.00  0.00    -0.340 N 
ATOM      8  C   UNL     1     -36.289   4.695  10.265  1.00  0.00    +0.049 A 
ATOM      9  C   UNL     1     -34.301   5.070   9.220  1.00  0.00    +0.049 A 
ATOM     10  C   UNL     1     -36.527   5.571   9.203  1.00  0.00    +0.007 A 
ATOM     11  C   UNL     1     -37.322   4.269  11.118  1.00  0.00    +0.027 A 
ATOM     12  C   UNL     1     -32.952   5.093   8.824  1.00  0.00    +0.027 A 
ATOM     13  C   UNL     1     -35.278   5.806   8.547  1.00  0.00    +0.007 A 
ATOM     14  C   UNL     1     -37.842   6.032   8.983  1.00  0.00    +0.011 A 
ATOM     15  C   UNL     1     -38.615   4.742  10.879  1.00  0.00    +0.002 A 
ATOM     16  C   UNL     1     -32.599   5.876   7.722  1.00  0.00    +0.002 A 
ATOM     17  C   UNL     1     -34.895   6.589   7.436  1.00  0.00    +0.011 A 
ATOM     18  C   UNL     1     -38.874   5.612   9.826  1.00  0.00    +0.001 A 
ATOM     19  C   UNL     1     -33.557   6.615   7.034  1.00  0.00    +0.001 A 
ENDBRANCH   6   7
ENDBRANCH   5   6
ENDBRANCH   1   5
TORSDOF 4
ENDMDL
MODEL 4
REMARK VINA RESULT:    -7.340      6.506      9.579
REMARK INTER + INTRA:          -9.313
REMARK INTER:                  -8.905
REMARK INTRA:                  -0.408
REMARK UNBOUND:                -0.471
REMARK SMILES O=C(O)CCn1c2ccccc2c2ccccc21
REMARK SMILES IDX 2 1 1 2 3 3 4 5 5 6 6 7 7 8 18 9 12 10 8 11 17 12 13 13
REMARK SMILES IDX 11 14 9 15 16 16 14 17 10 18 15 19
REMARK H PARENT 3 4
ROOT
ATOM      1  C   UNL     1     -34.181   1.680   9.714  1.00  0.00    +0.305 C 
ATOM      2  O   UNL     1     -33.085   1.576   9.189  1.00  0.00    -0.252 OA
ENDROOT
BRANCH   1   3
ATOM      3  O   UNL     1     -35.300   1.350   9.041  1.00  0.00    -0.481 OA
ATOM      4  H   UNL     1     -35.721   0.652   9.586  1.00  0.00    +0.296 HD
ENDBRANCH   1   3
BRANCH   1   5
ATOM      5  C   UNL     1     -34.479   2.158  11.102  1.00  0.00    +0.144 C 
BRANCH   5   6
ATOM      6  C   UNL     1     -34.123   3.631  11.236  1.00  0.00    +0.134 C 
BRANCH   6   7
ATOM      7  N   UNL     1     -34.826   4.445  10.255  1.00  0.00    -0.340 N 
ATOM      8  C   UNL     1     -34.221   5.095   9.196  1.00  0.00    +0.049 A 
ATOM      9  C   UNL     1     -36.192   4.660  10.252  1.00  0.00    +0.049 A 
ATOM     10  C   UNL     1     -35.232   5.754   8.494  1.00  0.00    +0.007 A 
ATOM     11  C   UNL     1     -32.876   5.157   8.792  1.00  0.00    +0.027 A 
ATOM     12  C   UNL     1     -37.206   4.203  11.111  1.00  0.00    +0.027 A 
ATOM     13  C   UNL     1     -36.469   5.481   9.157  1.00  0.00    +0.007 A 
ATOM     14  C   UNL     1     -34.887   6.506   7.351  1.00  0.00    +0.011 A 
ATOM     15  C   UNL     1     -32.562   5.908   7.656  1.00  0.00    +0.002 A 
ATOM     16  C   UNL     1     -38.522   4.594  10.848  1.00  0.00    +0.002 A 
ATOM     17  C   UNL     1     -37.807   5.862   8.915  1.00  0.00    +0.011 A 
ATOM     18  C   UNL     1     -33.552   6.575   6.943  1.00  0.00    +0.001 A 
ATOM     19  C   UNL     1     -38.821   5.414   9.765  1.00  0.00    +0.001 A 
ENDBRANCH   6   7
ENDBRANCH   5   6
ENDBRANCH   1   5
TORSDOF 4
ENDMDL
MODEL 5
REMARK VINA RESULT:    -7.081      6.473      9.932
REMARK INTER + INTRA:          -9.000
REMARK INTER:                  -8.484
REMARK INTRA:                  -0.516
REMARK UNBOUND:                -0.471
REMARK SMILES O=C(O)CCn1c2ccccc2c2ccccc21
REMARK SMILES IDX 2 1 1 2 3 3 4 5 5 6 6 7 7 8 18 9 12 10 8 11 17 12 13 13
REMARK SMILES IDX 11 14 9 15 16 16 14 17 10 18 15 19
REMARK H PARENT 3 4
ROOT
ATOM      1  C   UNL     1     -33.864   6.732   6.494  1.00  0.00    +0.305 C 
ATOM      2  O   UNL     1     -33.654   6.986   5.320  1.00  0.00    -0.252 OA
ENDROOT
BRANCH   1   3
ATOM      3  O   UNL     1     -34.234   7.702   7.352  1.00  0.00    -0.481 OA
ATOM      4  H   UNL     1     -34.014   7.346   8.239  1.00  0.00    +0.296 HD
ENDBRANCH   1   3
BRANCH   1   5
ATOM      5  C   UNL     1     -33.759   5.397   7.164  1.00  0.00    +0.144 C 
BRANCH   5   6
ATOM      6  C   UNL     1     -33.584   5.577   8.665  1.00  0.00    +0.134 C 
BRANCH   6   7
ATOM      7  N   UNL     1     -34.442   4.674   9.418  1.00  0.00    -0.340 N 
ATOM      8  C   UNL     1     -35.724   4.977   9.834  1.00  0.00    +0.049 A 
ATOM      9  C   UNL     1     -34.087   3.394   9.801  1.00  0.00    +0.049 A 
ATOM     10  C   UNL     1     -36.205   3.855  10.513  1.00  0.00    +0.007 A 
ATOM     11  C   UNL     1     -36.505   6.134   9.671  1.00  0.00    +0.027 A 
ATOM     12  C   UNL     1     -32.907   2.658   9.597  1.00  0.00    +0.027 A 
ATOM     13  C   UNL     1     -35.177   2.861  10.491  1.00  0.00    +0.007 A 
ATOM     14  C   UNL     1     -37.509   3.892  11.051  1.00  0.00    +0.011 A 
ATOM     15  C   UNL     1     -37.793   6.145  10.213  1.00  0.00    +0.002 A 
ATOM     16  C   UNL     1     -32.840   1.360  10.110  1.00  0.00    +0.002 A 
ATOM     17  C   UNL     1     -35.083   1.548  11.000  1.00  0.00    +0.011 A 
ATOM     18  C   UNL     1     -38.291   5.040  10.895  1.00  0.00    +0.001 A 
ATOM     19  C   UNL     1     -33.912   0.810  10.805  1.00  0.00    +0.001 A 
ENDBRANCH   6   7
ENDBRANCH   5   6
ENDBRANCH   1   5
TORSDOF 4
ENDMDL
MODEL 6
REMARK VINA RESULT:    -6.950      7.509     10.658
REMARK INTER + INTRA:          -8.843
REMARK INTER:                  -8.518
REMARK INTRA:                  -0.325
REMARK UNBOUND:                -0.471
REMARK SMILES O=C(O)CCn1c2ccccc2c2ccccc21
REMARK SMILES IDX 2 1 1 2 3 3 4 5 5 6 6 7 7 8 18 9 12 10 8 11 17 12 13 13
REMARK SMILES IDX 11 14 9 15 16 16 14 17 10 18 15 19
REMARK H PARENT 3 4
ROOT
ATOM      1  C   UNL     1     -26.429   3.893   9.535  1.00  0.00    +0.305 C 
ATOM      2  O   UNL     1     -26.074   3.258   8.557  1.00  0.00    -0.252 OA
ENDROOT
BRANCH   1   3
ATOM      3  O   UNL     1     -27.706   4.302   9.663  1.00  0.00    -0.481 OA
ATOM      4  H   UNL     1     -28.242   3.501   9.484  1.00  0.00    +0.296 HD
ENDBRANCH   1   3
BRANCH   1   5
ATOM      5  C   UNL     1     -25.585   4.313  10.698  1.00  0.00    +0.144 C 
BRANCH   5   6
ATOM      6  C   UNL     1     -25.824   3.386  11.881  1.00  0.00    +0.134 C 
BRANCH   6   7
ATOM      7  N   UNL     1     -25.560   1.996  11.536  1.00  0.00    -0.340 N 
ATOM      8  C   UNL     1     -24.326   1.504  11.159  1.00  0.00    +0.049 A 
ATOM      9  C   UNL     1     -26.509   0.991  11.557  1.00  0.00    +0.049 A 
ATOM     10  C   UNL     1     -24.490   0.137  10.922  1.00  0.00    +0.007 A 
ATOM     11  C   UNL     1     -23.080   2.137  11.008  1.00  0.00    +0.027 A 
ATOM     12  C   UNL     1     -27.876   1.012  11.883  1.00  0.00    +0.027 A 
ATOM     13  C   UNL     1     -25.861  -0.184  11.173  1.00  0.00    +0.007 A 
ATOM     14  C   UNL     1     -23.372  -0.622  10.517  1.00  0.00    +0.011 A 
ATOM     15  C   UNL     1     -21.989   1.361  10.606  1.00  0.00    +0.002 A 
ATOM     16  C   UNL     1     -28.591  -0.187  11.811  1.00  0.00    +0.002 A 
ATOM     17  C   UNL     1     -26.607  -1.381  11.108  1.00  0.00    +0.011 A 
ATOM     18  C   UNL     1     -22.130  -0.000  10.363  1.00  0.00    +0.001 A 
ATOM     19  C   UNL     1     -27.967  -1.369  11.428  1.00  0.00    +0.001 A 
ENDBRANCH   6   7
ENDBRANCH   5   6
ENDBRANCH   1   5
TORSDOF 4
ENDMDL
MODEL 7
REMARK VINA RESULT:    -6.928      5.886      9.192
REMARK INTER + INTRA:          -8.817
REMARK INTER:                  -8.413
REMARK INTRA:                  -0.404
REMARK UNBOUND:                -0.471
REMARK SMILES O=C(O)CCn1c2ccccc2c2ccccc21
REMARK SMILES IDX 2 1 1 2 3 3 4 5 5 6 6 7 7 8 18 9 12 10 8 11 17 12 13 13
REMARK SMILES IDX 11 14 9 15 16 16 14 17 10 18 15 19
REMARK H PARENT 3 4
ROOT
ATOM      1  C   UNL     1     -33.281   7.263   6.952  1.00  0.00    +0.305 C 
ATOM      2  O   UNL     1     -32.525   7.690   6.097  1.00  0.00    -0.252 OA
ENDROOT
BRANCH   1   3
ATOM      3  O   UNL     1     -34.031   8.105   7.690  1.00  0.00    -0.481 OA
ATOM      4  H   UNL     1     -34.845   8.241   7.161  1.00  0.00    +0.296 HD
ENDBRANCH   1   3
BRANCH   1   5
ATOM      5  C   UNL     1     -33.511   5.831   7.325  1.00  0.00    +0.144 C 
BRANCH   5   6
ATOM      6  C   UNL     1     -33.175   5.612   8.793  1.00  0.00    +0.134 C 
BRANCH   6   7
ATOM      7  N   UNL     1     -34.015   4.582   9.388  1.00  0.00    -0.340 N 
ATOM      8  C   UNL     1     -33.583   3.311   9.713  1.00  0.00    +0.049 A 
ATOM      9  C   UNL     1     -35.347   4.751   9.716  1.00  0.00    +0.049 A 
ATOM     10  C   UNL     1     -34.678   2.639  10.262  1.00  0.00    +0.007 A 
ATOM     11  C   UNL     1     -32.328   2.693   9.577  1.00  0.00    +0.027 A 
ATOM     12  C   UNL     1     -36.203   5.859   9.583  1.00  0.00    +0.027 A 
ATOM     13  C   UNL     1     -35.785   3.544  10.264  1.00  0.00    +0.007 A 
ATOM     14  C   UNL     1     -34.514   1.303  10.686  1.00  0.00    +0.011 A 
ATOM     15  C   UNL     1     -32.193   1.369  10.005  1.00  0.00    +0.002 A 
ATOM     16  C   UNL     1     -37.526   5.728  10.014  1.00  0.00    +0.002 A 
ATOM     17  C   UNL     1     -37.127   3.439  10.690  1.00  0.00    +0.011 A 
ATOM     18  C   UNL     1     -33.270   0.681  10.552  1.00  0.00    +0.001 A 
ATOM     19  C   UNL     1     -37.985   4.534  10.559  1.00  0.00    +0.001 A 
ENDBRANCH   6   7
ENDBRANCH   5   6
ENDBRANCH   1   5
TORSDOF 4
ENDMDL
MODEL 8
REMARK VINA RESULT:    -6.904      9.008     11.116
REMARK INTER + INTRA:          -8.787
REMARK INTER:                  -8.270
REMARK INTRA:                  -0.517
REMARK UNBOUND:                -0.471
REMARK SMILES O=C(O)CCn1c2ccccc2c2ccccc21
REMARK SMILES IDX 2 1 1 2 3 3 4 5 5 6 6 7 7 8 18 9 12 10 8 11 17 12 13 13
REMARK SMILES IDX 11 14 9 15 16 16 14 17 10 18 15 19
REMARK H PARENT 3 4
ROOT
ATOM      1  C   UNL     1     -28.809   0.210  15.716  1.00  0.00    +0.305 C 
ATOM      2  O   UNL     1     -27.703  -0.278  15.872  1.00  0.00    -0.252 OA
ENDROOT
BRANCH   1   3
ATOM      3  O   UNL     1     -29.152   1.353  16.340  1.00  0.00    -0.481 OA
ATOM      4  H   UNL     1     -28.454   1.486  17.016  1.00  0.00    +0.296 HD
ENDBRANCH   1   3
BRANCH   1   5
ATOM      5  C   UNL     1     -29.921  -0.322  14.865  1.00  0.00    +0.144 C 
BRANCH   5   6
ATOM      6  C   UNL     1     -29.369  -0.834  13.543  1.00  0.00    +0.134 C 
BRANCH   6   7
ATOM      7  N   UNL     1     -29.464   0.172  12.495  1.00  0.00    -0.340 N 
ATOM      8  C   UNL     1     -28.423   0.988  12.096  1.00  0.00    +0.049 A 
ATOM      9  C   UNL     1     -30.604   0.429  11.757  1.00  0.00    +0.049 A 
ATOM     10  C   UNL     1     -28.914   1.800  11.072  1.00  0.00    +0.007 A 
ATOM     11  C   UNL     1     -27.092   1.080  12.541  1.00  0.00    +0.027 A 
ATOM     12  C   UNL     1     -31.886  -0.147  11.798  1.00  0.00    +0.027 A 
ATOM     13  C   UNL     1     -30.284   1.449  10.859  1.00  0.00    +0.007 A 
ATOM     14  C   UNL     1     -28.048   2.741  10.475  1.00  0.00    +0.011 A 
ATOM     15  C   UNL     1     -26.256   2.020  11.932  1.00  0.00    +0.002 A 
ATOM     16  C   UNL     1     -32.854   0.329  10.910  1.00  0.00    +0.002 A 
ATOM     17  C   UNL     1     -31.281   1.912   9.973  1.00  0.00    +0.011 A 
ATOM     18  C   UNL     1     -26.725   2.841  10.913  1.00  0.00    +0.001 A 
ATOM     19  C   UNL     1     -32.558   1.347  10.009  1.00  0.00    +0.001 A 
ENDBRANCH   6   7
ENDBRANCH   5   6
ENDBRANCH   1   5
TORSDOF 4
ENDMDL
MODEL 9
REMARK VINA RESULT:    -6.868      9.449     11.638
REMARK INTER + INTRA:          -8.744
REMARK INTER:                  -8.335
REMARK INTRA:                  -0.409
REMARK UNBOUND:                -0.471
REMARK SMILES O=C(O)CCn1c2ccccc2c2ccccc21
REMARK SMILES IDX 2 1 1 2 3 3 4 5 5 6 6 7 7 8 18 9 12 10 8 11 17 12 13 13
REMARK SMILES IDX 11 14 9 15 16 16 14 17 10 18 15 19
REMARK H PARENT 3 4
ROOT
ATOM      1  C   UNL     1     -26.099   0.254   9.579  1.00  0.00    +0.305 C 
ATOM      2  O   UNL     1     -25.585   1.047   8.809  1.00  0.00    -0.252 OA
ENDROOT
BRANCH   1   3
ATOM      3  O   UNL     1     -25.356  -0.680  10.203  1.00  0.00    -0.481 OA
ATOM      4  H   UNL     1     -25.329  -1.434   9.578  1.00  0.00    +0.296 HD
ENDBRANCH   1   3
BRANCH   1   5
ATOM      5  C   UNL     1     -27.546   0.166   9.956  1.00  0.00    +0.144 C 
BRANCH   5   6
ATOM      6  C   UNL     1     -27.982   1.440  10.663  1.00  0.00    +0.134 C 
BRANCH   6   7
ATOM      7  N   UNL     1     -29.104   1.201  11.559  1.00  0.00    -0.340 N 
ATOM      8  C   UNL     1     -30.431   1.385  11.219  1.00  0.00    +0.049 A 
ATOM      9  C   UNL     1     -28.985   0.748  12.859  1.00  0.00    +0.049 A 
ATOM     10  C   UNL     1     -31.188   1.043  12.342  1.00  0.00    +0.007 A 
ATOM     11  C   UNL     1     -31.032   1.816  10.024  1.00  0.00    +0.027 A 
ATOM     12  C   UNL     1     -27.855   0.417  13.627  1.00  0.00    +0.027 A 
ATOM     13  C   UNL     1     -30.279   0.643  13.371  1.00  0.00    +0.007 A 
ATOM     14  C   UNL     1     -32.593   1.140  12.270  1.00  0.00    +0.011 A 
ATOM     15  C   UNL     1     -32.427   1.902   9.980  1.00  0.00    +0.002 A 
ATOM     16  C   UNL     1     -28.052  -0.024  14.938  1.00  0.00    +0.002 A 
ATOM     17  C   UNL     1     -30.450   0.196  14.700  1.00  0.00    +0.011 A 
ATOM     18  C   UNL     1     -33.199   1.570  11.087  1.00  0.00    +0.001 A 
ATOM     19  C   UNL     1     -29.332  -0.133  15.471  1.00  0.00    +0.001 A 
ENDBRANCH   6   7
ENDBRANCH   5   6
ENDBRANCH   1   5
TORSDOF 4
ENDMDL
