REMARK SMILES Cc1cc(C)c(CC(=O)c2ccccc2)c(C)c1
REMARK SMILES IDX 7 1 6 2 2 3 18 4 3 5 16 6 4 7 1 8 17 9 5 10 8 11 9 12 10 13
REMARK SMILES IDX 11 14 15 15 12 16 14 17 13 18
REMARK H PARENT
ROOT
ATOM      1  C   UNL     1       0.384   0.118   0.696  1.00  0.00    +0.117 C 
ENDROOT
BRANCH   1   2
ATOM      2  C   UNL     1      -1.094   0.052   0.343  1.00  0.00    -0.034 A 
ATOM      3  C   UNL     1      -3.852  -0.067  -0.290  1.00  0.00    -0.051 A 
ATOM      4  C   UNL     1      -3.158  -1.222   0.077  1.00  0.00    +0.007 A 
ATOM      5  C   UNL     1      -3.165   1.147  -0.337  1.00  0.00    +0.007 A 
ATOM      6  C   UNL     1      -1.786  -1.184   0.377  1.00  0.00    -0.047 A 
ATOM      7  C   UNL     1      -1.793   1.222  -0.043  1.00  0.00    -0.047 A 
ATOM      8  C   UNL     1      -5.322  -0.123  -0.580  1.00  0.00    +0.044 C 
ATOM      9  C   UNL     1      -1.101  -2.474   0.745  1.00  0.00    +0.044 C 
ATOM     10  C   UNL     1      -1.117   2.564  -0.135  1.00  0.00    +0.044 C 
ENDBRANCH   1   2
BRANCH   1  11
ATOM     11  C   UNL     1       1.324  -0.085  -0.483  1.00  0.00    +0.167 C 
ATOM     12  O   UNL     1       0.935  -0.287  -1.631  1.00  0.00    -0.294 OA
BRANCH  11  13
ATOM     13  C   UNL     1       2.799  -0.034  -0.228  1.00  0.00    +0.018 A 
ATOM     14  C   UNL     1       3.669  -0.220  -1.313  1.00  0.00    +0.012 A 
ATOM     15  C   UNL     1       3.339   0.190   1.046  1.00  0.00    +0.012 A 
ATOM     16  C   UNL     1       5.052  -0.183  -1.129  1.00  0.00    +0.001 A 
ATOM     17  C   UNL     1       4.725   0.227   1.226  1.00  0.00    +0.001 A 
ATOM     18  C   UNL     1       5.579   0.041   0.141  1.00  0.00    +0.000 A 
ENDBRANCH  11  13
ENDBRANCH   1  11
TORSDOF 3
