MODEL 1
REMARK VINA RESULT:    -9.292      0.000      0.000
REMARK INTER + INTRA:         -10.185
REMARK INTER:                 -10.107
REMARK INTRA:                  -0.078
REMARK UNBOUND:                -0.078
REMARK SMILES O=C(O)c1c2ccccc2nc2ccccc12
REMARK SMILES IDX 2 1 1 2 3 3 4 5 5 6 17 7 6 8 10 9 12 10 16 11 7 12 9 13
REMARK SMILES IDX 11 14 13 15 15 16 8 17 14 18
REMARK H PARENT 3 4
ROOT
ATOM      1  C   UNL     1     -26.129  11.325   5.184  1.00  0.00    +0.337 C 
ATOM      2  O   UNL     1     -26.101  11.471   3.979  1.00  0.00    -0.246 OA
ENDROOT
BRANCH   1   3
ATOM      3  O   UNL     1     -25.317  12.005   6.012  1.00  0.00    -0.478 OA
ATOM      4  H   UNL     1     -24.414  11.815   5.683  1.00  0.00    +0.297 HD
ENDBRANCH   1   3
BRANCH   1   5
ATOM      5  C   UNL     1     -26.968  10.378   5.938  1.00  0.00    +0.078 A 
ATOM      6  C   UNL     1     -28.308  10.737   6.216  1.00  0.00    +0.015 A 
ATOM      7  C   UNL     1     -26.413   9.151   6.375  1.00  0.00    +0.015 A 
ATOM      8  C   UNL     1     -28.930  11.953   5.825  1.00  0.00    +0.011 A 
ATOM      9  C   UNL     1     -29.061   9.793   6.930  1.00  0.00    +0.072 A 
ATOM     10  C   UNL     1     -27.282   8.303   7.079  1.00  0.00    +0.072 A 
ATOM     11  C   UNL     1     -25.071   8.734   6.166  1.00  0.00    +0.011 A 
ATOM     12  C   UNL     1     -30.263  12.216   6.139  1.00  0.00    +0.001 A 
ATOM     13  C   UNL     1     -30.387  10.077   7.229  1.00  0.00    +0.029 A 
ATOM     14  N   UNL     1     -28.559   8.619   7.339  1.00  0.00    -0.248 NA
ATOM     15  C   UNL     1     -26.804   7.081   7.537  1.00  0.00    +0.029 A 
ATOM     16  C   UNL     1     -24.614   7.504   6.636  1.00  0.00    +0.001 A 
ATOM     17  C   UNL     1     -30.994  11.273   6.844  1.00  0.00    +0.002 A 
ATOM     18  C   UNL     1     -25.485   6.673   7.324  1.00  0.00    +0.002 A 
ENDBRANCH   1   5
TORSDOF 2
ENDMDL
MODEL 2
REMARK VINA RESULT:    -9.259      0.107      4.406
REMARK INTER + INTRA:         -10.150
REMARK INTER:                 -10.079
REMARK INTRA:                  -0.070
REMARK UNBOUND:                -0.078
REMARK SMILES O=C(O)c1c2ccccc2nc2ccccc12
REMARK SMILES IDX 2 1 1 2 3 3 4 5 5 6 17 7 6 8 10 9 12 10 16 11 7 12 9 13
REMARK SMILES IDX 11 14 13 15 15 16 8 17 14 18
REMARK H PARENT 3 4
ROOT
ATOM      1  C   UNL     1     -26.086  11.236   5.242  1.00  0.00    +0.337 C 
ATOM      2  O   UNL     1     -26.065  11.394   4.038  1.00  0.00    -0.246 OA
ENDROOT
BRANCH   1   3
ATOM      3  O   UNL     1     -25.247  11.885   6.068  1.00  0.00    -0.478 OA
ATOM      4  H   UNL     1     -24.442  12.040   5.531  1.00  0.00    +0.297 HD
ENDBRANCH   1   3
BRANCH   1   5
ATOM      5  C   UNL     1     -26.945  10.307   5.994  1.00  0.00    +0.078 A 
ATOM      6  C   UNL     1     -26.402   9.063   6.397  1.00  0.00    +0.015 A 
ATOM      7  C   UNL     1     -28.283  10.669   6.277  1.00  0.00    +0.015 A 
ATOM      8  C   UNL     1     -25.076   8.623   6.139  1.00  0.00    +0.011 A 
ATOM      9  C   UNL     1     -27.265   8.222   7.117  1.00  0.00    +0.072 A 
ATOM     10  C   UNL     1     -29.032   9.730   7.003  1.00  0.00    +0.072 A 
ATOM     11  C   UNL     1     -28.910  11.879   5.877  1.00  0.00    +0.011 A 
ATOM     12  C   UNL     1     -24.628   7.381   6.585  1.00  0.00    +0.001 A 
ATOM     13  C   UNL     1     -26.794   6.990   7.552  1.00  0.00    +0.029 A 
ATOM     14  N   UNL     1     -28.531   8.553   7.408  1.00  0.00    -0.248 NA
ATOM     15  C   UNL     1     -30.353  10.020   7.317  1.00  0.00    +0.029 A 
ATOM     16  C   UNL     1     -30.239  12.148   6.202  1.00  0.00    +0.001 A 
ATOM     17  C   UNL     1     -25.491   6.561   7.295  1.00  0.00    +0.002 A 
ATOM     18  C   UNL     1     -30.964  11.215   6.927  1.00  0.00    +0.002 A 
ENDBRANCH   1   5
TORSDOF 2
ENDMDL
MODEL 3
REMARK VINA RESULT:    -8.422      2.545      5.037
REMARK INTER + INTRA:          -9.239
REMARK INTER:                  -9.088
REMARK INTRA:                  -0.151
REMARK UNBOUND:                -0.078
REMARK SMILES O=C(O)c1c2ccccc2nc2ccccc12
REMARK SMILES IDX 2 1 1 2 3 3 4 5 5 6 17 7 6 8 10 9 12 10 16 11 7 12 9 13
REMARK SMILES IDX 11 14 13 15 15 16 8 17 14 18
REMARK H PARENT 3 4
ROOT
ATOM      1  C   UNL     1     -30.964  10.139   7.153  1.00  0.00    +0.337 C 
ATOM      2  O   UNL     1     -31.470  10.647   8.133  1.00  0.00    -0.246 OA
ENDROOT
BRANCH   1   3
ATOM      3  O   UNL     1     -31.694   9.606   6.159  1.00  0.00    -0.478 OA
ATOM      4  H   UNL     1     -31.422  10.103   5.359  1.00  0.00    +0.297 HD
ENDBRANCH   1   3
BRANCH   1   5
ATOM      5  C   UNL     1     -29.525   9.957   6.900  1.00  0.00    +0.078 A 
ATOM      6  C   UNL     1     -28.912   8.753   7.322  1.00  0.00    +0.015 A 
ATOM      7  C   UNL     1     -28.794  10.988   6.262  1.00  0.00    +0.015 A 
ATOM      8  C   UNL     1     -29.574   7.681   7.979  1.00  0.00    +0.011 A 
ATOM      9  C   UNL     1     -27.541   8.632   7.046  1.00  0.00    +0.072 A 
ATOM     10  C   UNL     1     -27.430  10.731   6.052  1.00  0.00    +0.072 A 
ATOM     11  C   UNL     1     -29.327  12.236   5.843  1.00  0.00    +0.011 A 
ATOM     12  C   UNL     1     -28.887   6.526   8.350  1.00  0.00    +0.001 A 
ATOM     13  C   UNL     1     -26.880   7.472   7.424  1.00  0.00    +0.029 A 
ATOM     14  N   UNL     1     -26.835   9.591   6.430  1.00  0.00    -0.248 NA
ATOM     15  C   UNL     1     -26.652  11.700   5.431  1.00  0.00    +0.029 A 
ATOM     16  C   UNL     1     -28.526  13.193   5.222  1.00  0.00    +0.001 A 
ATOM     17  C   UNL     1     -27.533   6.421   8.071  1.00  0.00    +0.002 A 
ATOM     18  C   UNL     1     -27.182  12.923   5.013  1.00  0.00    +0.002 A 
ENDBRANCH   1   5
TORSDOF 2
ENDMDL
MODEL 4
REMARK VINA RESULT:    -8.412      2.539      3.786
REMARK INTER + INTRA:          -9.228
REMARK INTER:                  -9.080
REMARK INTRA:                  -0.148
REMARK UNBOUND:                -0.078
REMARK SMILES O=C(O)c1c2ccccc2nc2ccccc12
REMARK SMILES IDX 2 1 1 2 3 3 4 5 5 6 17 7 6 8 10 9 12 10 16 11 7 12 9 13
REMARK SMILES IDX 11 14 13 15 15 16 8 17 14 18
REMARK H PARENT 3 4
ROOT
ATOM      1  C   UNL     1     -30.950  10.186   7.183  1.00  0.00    +0.337 C 
ATOM      2  O   UNL     1     -31.443  10.723   8.154  1.00  0.00    -0.246 OA
ENDROOT
BRANCH   1   3
ATOM      3  O   UNL     1     -31.694   9.654   6.198  1.00  0.00    -0.478 OA
ATOM      4  H   UNL     1     -32.255  10.395   5.885  1.00  0.00    +0.297 HD
ENDBRANCH   1   3
BRANCH   1   5
ATOM      5  C   UNL     1     -29.516   9.963   6.932  1.00  0.00    +0.078 A 
ATOM      6  C   UNL     1     -28.782  10.976   6.269  1.00  0.00    +0.015 A 
ATOM      7  C   UNL     1     -28.918   8.748   7.342  1.00  0.00    +0.015 A 
ATOM      8  C   UNL     1     -29.315  12.213   5.815  1.00  0.00    +0.011 A 
ATOM      9  C   UNL     1     -27.419  10.712   6.065  1.00  0.00    +0.072 A 
ATOM     10  C   UNL     1     -27.546   8.619   7.072  1.00  0.00    +0.072 A 
ATOM     11  C   UNL     1     -29.592   7.673   7.979  1.00  0.00    +0.011 A 
ATOM     12  C   UNL     1     -28.509  13.155   5.177  1.00  0.00    +0.001 A 
ATOM     13  C   UNL     1     -26.638  11.667   5.428  1.00  0.00    +0.029 A 
ATOM     14  N   UNL     1     -26.831   9.573   6.459  1.00  0.00    -0.248 NA
ATOM     15  C   UNL     1     -26.894   7.452   7.448  1.00  0.00    +0.029 A 
ATOM     16  C   UNL     1     -28.916   6.510   8.346  1.00  0.00    +0.001 A 
ATOM     17  C   UNL     1     -27.165  12.880   4.983  1.00  0.00    +0.002 A 
ATOM     18  C   UNL     1     -27.560   6.400   8.080  1.00  0.00    +0.002 A 
ENDBRANCH   1   5
TORSDOF 2
ENDMDL
MODEL 5
REMARK VINA RESULT:    -8.286      2.197      4.104
REMARK INTER + INTRA:          -9.091
REMARK INTER:                  -9.155
REMARK INTRA:                   0.064
REMARK UNBOUND:                -0.078
REMARK SMILES O=C(O)c1c2ccccc2nc2ccccc12
REMARK SMILES IDX 2 1 1 2 3 3 4 5 5 6 17 7 6 8 10 9 12 10 16 11 7 12 9 13
REMARK SMILES IDX 11 14 13 15 15 16 8 17 14 18
REMARK H PARENT 3 4
ROOT
ATOM      1  C   UNL     1     -27.117   8.312   6.713  1.00  0.00    +0.337 C 
ATOM      2  O   UNL     1     -26.508   7.963   7.704  1.00  0.00    -0.246 OA
ENDROOT
BRANCH   1   3
ATOM      3  O   UNL     1     -26.740   7.954   5.473  1.00  0.00    -0.478 OA
ATOM      4  H   UNL     1     -26.302   8.752   5.108  1.00  0.00    +0.297 HD
ENDBRANCH   1   3
BRANCH   1   5
ATOM      5  C   UNL     1     -28.290   9.200   6.666  1.00  0.00    +0.078 A 
ATOM      6  C   UNL     1     -28.117  10.521   6.188  1.00  0.00    +0.015 A 
ATOM      7  C   UNL     1     -29.545   8.721   7.111  1.00  0.00    +0.015 A 
ATOM      8  C   UNL     1     -26.889  11.078   5.739  1.00  0.00    +0.011 A 
ATOM      9  C   UNL     1     -29.271  11.320   6.160  1.00  0.00    +0.072 A 
ATOM     10  C   UNL     1     -30.612   9.629   7.027  1.00  0.00    +0.072 A 
ATOM     11  C   UNL     1     -29.791   7.424   7.636  1.00  0.00    +0.011 A 
ATOM     12  C   UNL     1     -26.818  12.391   5.277  1.00  0.00    +0.001 A 
ATOM     13  C   UNL     1     -29.174  12.624   5.693  1.00  0.00    +0.029 A 
ATOM     14  N   UNL     1     -30.471  10.879   6.562  1.00  0.00    -0.248 NA
ATOM     15  C   UNL     1     -31.873   9.225   7.446  1.00  0.00    +0.029 A 
ATOM     16  C   UNL     1     -31.066   7.042   8.051  1.00  0.00    +0.001 A 
ATOM     17  C   UNL     1     -27.966  13.167   5.253  1.00  0.00    +0.002 A 
ATOM     18  C   UNL     1     -32.112   7.947   7.955  1.00  0.00    +0.002 A 
ENDBRANCH   1   5
TORSDOF 2
ENDMDL
MODEL 6
REMARK VINA RESULT:    -7.765      8.813     10.283
REMARK INTER + INTRA:          -8.524
REMARK INTER:                  -8.368
REMARK INTRA:                  -0.156
REMARK UNBOUND:                -0.078
REMARK SMILES O=C(O)c1c2ccccc2nc2ccccc12
REMARK SMILES IDX 2 1 1 2 3 3 4 5 5 6 17 7 6 8 10 9 12 10 16 11 7 12 9 13
REMARK SMILES IDX 11 14 13 15 15 16 8 17 14 18
REMARK H PARENT 3 4
ROOT
ATOM      1  C   UNL     1     -26.123   3.652  11.856  1.00  0.00    +0.337 C 
ATOM      2  O   UNL     1     -26.065   4.193  12.942  1.00  0.00    -0.246 OA
ENDROOT
BRANCH   1   3
ATOM      3  O   UNL     1     -26.398   4.328  10.727  1.00  0.00    -0.478 OA
ATOM      4  H   UNL     1     -25.530   4.428  10.282  1.00  0.00    +0.297 HD
ENDBRANCH   1   3
BRANCH   1   5
ATOM      5  C   UNL     1     -25.974   2.214  11.579  1.00  0.00    +0.078 A 
ATOM      6  C   UNL     1     -27.114   1.383  11.693  1.00  0.00    +0.015 A 
ATOM      7  C   UNL     1     -24.703   1.700  11.227  1.00  0.00    +0.015 A 
ATOM      8  C   UNL     1     -28.417   1.821  12.056  1.00  0.00    +0.011 A 
ATOM      9  C   UNL     1     -26.914   0.023  11.411  1.00  0.00    +0.072 A 
ATOM     10  C   UNL     1     -24.649   0.321  10.973  1.00  0.00    +0.072 A 
ATOM     11  C   UNL     1     -23.507   2.460  11.126  1.00  0.00    +0.011 A 
ATOM     12  C   UNL     1     -29.483   0.927  12.134  1.00  0.00    +0.001 A 
ATOM     13  C   UNL     1     -27.993  -0.847  11.493  1.00  0.00    +0.029 A 
ATOM     14  N   UNL     1     -25.722  -0.480  11.060  1.00  0.00    -0.248 NA
ATOM     15  C   UNL     1     -23.433  -0.251  10.620  1.00  0.00    +0.029 A 
ATOM     16  C   UNL     1     -22.298   1.864  10.772  1.00  0.00    +0.001 A 
ATOM     17  C   UNL     1     -29.270  -0.413  11.851  1.00  0.00    +0.002 A 
ATOM     18  C   UNL     1     -22.261   0.501  10.516  1.00  0.00    +0.002 A 
ENDBRANCH   1   5
TORSDOF 2
ENDMDL
MODEL 7
REMARK VINA RESULT:    -7.716      8.846     10.906
REMARK INTER + INTRA:          -8.471
REMARK INTER:                  -8.315
REMARK INTRA:                  -0.156
REMARK UNBOUND:                -0.078
REMARK SMILES O=C(O)c1c2ccccc2nc2ccccc12
REMARK SMILES IDX 2 1 1 2 3 3 4 5 5 6 17 7 6 8 10 9 12 10 16 11 7 12 9 13
REMARK SMILES IDX 11 14 13 15 15 16 8 17 14 18
REMARK H PARENT 3 4
ROOT
ATOM      1  C   UNL     1     -26.195   3.602  11.866  1.00  0.00    +0.337 C 
ATOM      2  O   UNL     1     -26.112   4.150  12.946  1.00  0.00    -0.246 OA
ENDROOT
BRANCH   1   3
ATOM      3  O   UNL     1     -26.491   4.271  10.738  1.00  0.00    -0.478 OA
ATOM      4  H   UNL     1     -27.013   5.045  11.040  1.00  0.00    +0.297 HD
ENDBRANCH   1   3
BRANCH   1   5
ATOM      5  C   UNL     1     -26.057   2.161  11.596  1.00  0.00    +0.078 A 
ATOM      6  C   UNL     1     -24.784   1.661  11.232  1.00  0.00    +0.015 A 
ATOM      7  C   UNL     1     -27.194   1.323  11.691  1.00  0.00    +0.015 A 
ATOM      8  C   UNL     1     -23.603   2.440  11.101  1.00  0.00    +0.011 A 
ATOM      9  C   UNL     1     -24.712   0.280  10.995  1.00  0.00    +0.072 A 
ATOM     10  C   UNL     1     -26.975  -0.038  11.426  1.00  0.00    +0.072 A 
ATOM     11  C   UNL     1     -28.508   1.753  12.016  1.00  0.00    +0.011 A 
ATOM     12  C   UNL     1     -22.389   1.856  10.745  1.00  0.00    +0.001 A 
ATOM     13  C   UNL     1     -23.491  -0.278  10.643  1.00  0.00    +0.029 A 
ATOM     14  N   UNL     1     -25.774  -0.533  11.095  1.00  0.00    -0.248 NA
ATOM     15  C   UNL     1     -28.047  -0.918  11.502  1.00  0.00    +0.029 A 
ATOM     16  C   UNL     1     -29.569   0.851  12.085  1.00  0.00    +0.001 A 
ATOM     17  C   UNL     1     -22.332   0.490  10.515  1.00  0.00    +0.002 A 
ATOM     18  C   UNL     1     -29.336  -0.492  11.828  1.00  0.00    +0.002 A 
ENDBRANCH   1   5
TORSDOF 2
ENDMDL
MODEL 8
REMARK VINA RESULT:    -7.388      8.741     10.847
REMARK INTER + INTRA:          -8.114
REMARK INTER:                  -7.962
REMARK INTRA:                  -0.152
REMARK UNBOUND:                -0.078
REMARK SMILES O=C(O)c1c2ccccc2nc2ccccc12
REMARK SMILES IDX 2 1 1 2 3 3 4 5 5 6 17 7 6 8 10 9 12 10 16 11 7 12 9 13
REMARK SMILES IDX 11 14 13 15 15 16 8 17 14 18
REMARK H PARENT 3 4
ROOT
ATOM      1  C   UNL     1     -34.274   3.241  10.708  1.00  0.00    +0.337 C 
ATOM      2  O   UNL     1     -33.774   3.384  11.805  1.00  0.00    -0.246 OA
ENDROOT
BRANCH   1   3
ATOM      3  O   UNL     1     -34.241   2.070  10.048  1.00  0.00    -0.478 OA
ATOM      4  H   UNL     1     -35.174   1.770  10.031  1.00  0.00    +0.297 HD
ENDBRANCH   1   3
BRANCH   1   5
ATOM      5  C   UNL     1     -34.928   4.280   9.896  1.00  0.00    +0.078 A 
ATOM      6  C   UNL     1     -34.120   5.100   9.071  1.00  0.00    +0.015 A 
ATOM      7  C   UNL     1     -36.331   4.444   9.972  1.00  0.00    +0.015 A 
ATOM      8  C   UNL     1     -32.707   5.007   8.953  1.00  0.00    +0.011 A 
ATOM      9  C   UNL     1     -34.799   6.067   8.315  1.00  0.00    +0.072 A 
ATOM     10  C   UNL     1     -36.876   5.451   9.161  1.00  0.00    +0.072 A 
ATOM     11  C   UNL     1     -37.204   3.687  10.799  1.00  0.00    +0.011 A 
ATOM     12  C   UNL     1     -31.996   5.855   8.106  1.00  0.00    +0.001 A 
ATOM     13  C   UNL     1     -34.068   6.899   7.477  1.00  0.00    +0.029 A 
ATOM     14  N   UNL     1     -36.129   6.227   8.361  1.00  0.00    -0.248 NA
ATOM     15  C   UNL     1     -38.248   5.666   9.185  1.00  0.00    +0.029 A 
ATOM     16  C   UNL     1     -38.578   3.922  10.807  1.00  0.00    +0.001 A 
ATOM     17  C   UNL     1     -32.680   6.805   7.364  1.00  0.00    +0.002 A 
ATOM     18  C   UNL     1     -39.103   4.916   9.995  1.00  0.00    +0.002 A 
ENDBRANCH   1   5
TORSDOF 2
ENDMDL
MODEL 9
REMARK VINA RESULT:    -7.324      6.115      8.309
REMARK INTER + INTRA:          -8.045
REMARK INTER:                  -7.890
REMARK INTRA:                  -0.154
REMARK UNBOUND:                -0.078
REMARK SMILES O=C(O)c1c2ccccc2nc2ccccc12
REMARK SMILES IDX 2 1 1 2 3 3 4 5 5 6 17 7 6 8 10 9 12 10 16 11 7 12 9 13
REMARK SMILES IDX 11 14 13 15 15 16 8 17 14 18
REMARK H PARENT 3 4
ROOT
ATOM      1  C   UNL     1     -24.110   2.621  10.321  1.00  0.00    +0.337 C 
ATOM      2  O   UNL     1     -23.439   1.867   9.646  1.00  0.00    -0.246 OA
ENDROOT
BRANCH   1   3
ATOM      3  O   UNL     1     -23.620   3.251  11.403  1.00  0.00    -0.478 OA
ATOM      4  H   UNL     1     -22.714   2.891  11.509  1.00  0.00    +0.297 HD
ENDBRANCH   1   3
BRANCH   1   5
ATOM      5  C   UNL     1     -25.537   2.933  10.138  1.00  0.00    +0.078 A 
ATOM      6  C   UNL     1     -25.886   4.070   9.370  1.00  0.00    +0.015 A 
ATOM      7  C   UNL     1     -26.514   2.106  10.742  1.00  0.00    +0.015 A 
ATOM      8  C   UNL     1     -24.965   4.954   8.746  1.00  0.00    +0.011 A 
ATOM      9  C   UNL     1     -27.260   4.313   9.223  1.00  0.00    +0.072 A 
ATOM     10  C   UNL     1     -27.850   2.469  10.512  1.00  0.00    +0.072 A 
ATOM     11  C   UNL     1     -26.244   0.972  11.554  1.00  0.00    +0.011 A 
ATOM     12  C   UNL     1     -25.405   6.046   8.000  1.00  0.00    +0.001 A 
ATOM     13  C   UNL     1     -27.673   5.406   8.474  1.00  0.00    +0.029 A 
ATOM     14  N   UNL     1     -28.201   3.533   9.775  1.00  0.00    -0.248 NA
ATOM     15  C   UNL     1     -28.862   1.701  11.074  1.00  0.00    +0.029 A 
ATOM     16  C   UNL     1     -27.277   0.217  12.109  1.00  0.00    +0.001 A 
ATOM     17  C   UNL     1     -26.765   6.273   7.863  1.00  0.00    +0.002 A 
ATOM     18  C   UNL     1     -28.592   0.582  11.866  1.00  0.00    +0.002 A 
ENDBRANCH   1   5
TORSDOF 2
ENDMDL
