REMARK SMILES CCN(CC)CCCNc1c2ccc(Cl)cc2nc2ccc(OC)cc12
REMARK SMILES IDX 7 1 6 2 3 3 2 4 1 5 4 6 5 7 8 8 9 9 10 11 26 12 11 13 25 14
REMARK SMILES IDX 19 15 17 16 12 17 22 18 20 19 18 20 16 21 13 22 21 23 14 24
REMARK SMILES IDX 15 25 23 26 24 27
REMARK H PARENT 9 10
ROOT
ATOM      1  C   UNL     1       1.353  -0.019  -0.434  1.00  0.00    +0.037 C 
ENDROOT
BRANCH   1   2
ATOM      2  C   UNL     1       2.667   0.140   0.343  1.00  0.00    +0.086 C 
BRANCH   2   3
ATOM      3  N   UNL     1       3.183  -1.120   0.908  1.00  0.00    -0.304 NA
BRANCH   3   4
ATOM      4  C   UNL     1       3.412  -2.184  -0.087  1.00  0.00    +0.081 C 
ATOM      5  C   UNL     1       4.386  -1.856  -1.215  1.00  0.00    +0.021 C 
ENDBRANCH   3   4
BRANCH   3   6
ATOM      6  C   UNL     1       4.387  -0.901   1.730  1.00  0.00    +0.081 C 
ATOM      7  C   UNL     1       4.077  -0.221   3.061  1.00  0.00    +0.021 C 
ENDBRANCH   3   6
ENDBRANCH   2   3
ENDBRANCH   1   2
BRANCH   1   8
ATOM      8  C   UNL     1       0.829   1.341  -0.900  1.00  0.00    +0.114 C 
BRANCH   8   9
ATOM      9  N   UNL     1      -0.345   1.200  -1.778  1.00  0.00    -0.384 N 
ATOM     10  H   UNL     1      -0.296   0.359  -2.345  1.00  0.00    +0.160 HD
BRANCH   9  11
ATOM     11  C   UNL     1      -1.596   1.304  -1.101  1.00  0.00    +0.053 A 
ATOM     12  C   UNL     1      -2.331   0.144  -0.727  1.00  0.00    +0.028 A 
ATOM     13  C   UNL     1      -2.082   2.590  -0.737  1.00  0.00    +0.024 A 
ATOM     14  C   UNL     1      -1.965  -1.190  -1.049  1.00  0.00    +0.059 A 
ATOM     15  C   UNL     1      -3.509   0.346   0.016  1.00  0.00    +0.073 A 
ATOM     16  C   UNL     1      -3.281   2.650  -0.002  1.00  0.00    +0.074 A 
ATOM     17  C   UNL     1      -1.448   3.802  -1.100  1.00  0.00    +0.014 A 
ATOM     18  C   UNL     1      -2.729  -2.287  -0.648  1.00  0.00    +0.119 A 
ATOM     19  C   UNL     1      -4.253  -0.756   0.413  1.00  0.00    +0.033 A 
ATOM     20  N   UNL     1      -3.960   1.557   0.368  1.00  0.00    -0.248 NA
ATOM     21  C   UNL     1      -3.798   3.887   0.356  1.00  0.00    +0.049 A 
ATOM     22  C   UNL     1      -1.980   5.036  -0.733  1.00  0.00    +0.021 A 
ATOM     23  C   UNL     1      -3.880  -2.066   0.094  1.00  0.00    +0.048 A 
ATOM     24  C   UNL     1      -3.159   5.071  -0.006  1.00  0.00    +0.043 A 
ATOM     25 Cl   UNL     1      -3.840   6.585   0.449  1.00  0.00    -0.084 Cl
BRANCH  18  26
ATOM     26  O   UNL     1      -2.243  -3.500  -1.045  1.00  0.00    -0.497 OA
ATOM     27  C   UNL     1      -2.988  -4.650  -0.662  1.00  0.00    +0.278 C 
ENDBRANCH  18  26
ENDBRANCH   9  11
ENDBRANCH   8   9
ENDBRANCH   1   8
TORSDOF 8
