MODEL 1
REMARK VINA RESULT:    -7.830      0.000      0.000
REMARK INTER + INTRA:          -9.598
REMARK INTER:                  -9.203
REMARK INTRA:                  -0.395
REMARK UNBOUND:                -0.395
REMARK SMILES CCSc1nc(C)nc2c1cnn2-c1ccccc1
REMARK SMILES IDX 3 1 2 2 1 3 4 4 10 5 5 6 11 7 9 8 6 9 12 10 13 11 8 12 7 13
REMARK SMILES IDX 14 14 15 15 19 16 16 17 18 18 17 19
REMARK H PARENT
ROOT
ATOM      1  S   UNL     1     -37.430   1.393  10.920  1.00  0.00    -0.106 SA
ENDROOT
BRANCH   1   2
ATOM      2  C   UNL     1     -39.156   1.637  11.459  1.00  0.00    +0.073 C 
ATOM      3  C   UNL     1     -39.947   0.341  11.420  1.00  0.00    +0.016 C 
ENDBRANCH   1   2
BRANCH   1   4
ATOM      4  C   UNL     1     -37.085   2.943  10.145  1.00  0.00    +0.111 A 
ATOM      5  C   UNL     1     -35.898   3.106   9.439  1.00  0.00    +0.072 A 
ATOM      6  N   UNL     1     -37.967   3.962  10.209  1.00  0.00    -0.226 NA
ATOM      7  C   UNL     1     -34.758   2.353   9.121  1.00  0.00    +0.149 A 
ATOM      8  C   UNL     1     -35.686   4.338   8.840  1.00  0.00    +0.167 A 
ATOM      9  C   UNL     1     -37.658   5.123   9.596  1.00  0.00    +0.129 A 
ATOM     10  N   UNL     1     -33.878   3.026   8.383  1.00  0.00    -0.174 NA
ATOM     11  N   UNL     1     -34.447   4.260   8.203  1.00  0.00    -0.215 N 
ATOM     12  N   UNL     1     -36.543   5.379   8.891  1.00  0.00    -0.213 NA
ATOM     13  C   UNL     1     -38.678   6.218   9.673  1.00  0.00    +0.090 C 
BRANCH  11  14
ATOM     14  C   UNL     1     -33.753   5.250   7.438  1.00  0.00    +0.067 A 
ATOM     15  C   UNL     1     -32.726   5.991   8.050  1.00  0.00    +0.028 A 
ATOM     16  C   UNL     1     -34.064   5.506   6.097  1.00  0.00    +0.028 A 
ATOM     17  C   UNL     1     -32.029   6.966   7.333  1.00  0.00    +0.002 A 
ATOM     18  C   UNL     1     -33.361   6.485   5.385  1.00  0.00    +0.002 A 
ATOM     19  C   UNL     1     -32.346   7.212   6.001  1.00  0.00    +0.000 A 
ENDBRANCH  11  14
ENDBRANCH   1   4
TORSDOF 3
ENDMDL
MODEL 2
REMARK VINA RESULT:    -7.263      2.965      5.590
REMARK INTER + INTRA:          -8.931
REMARK INTER:                  -8.494
REMARK INTRA:                  -0.437
REMARK UNBOUND:                -0.395
REMARK SMILES CCSc1nc(C)nc2c1cnn2-c1ccccc1
REMARK SMILES IDX 3 1 2 2 1 3 4 4 10 5 5 6 11 7 9 8 6 9 12 10 13 11 8 12 7 13
REMARK SMILES IDX 14 14 15 15 19 16 16 17 18 18 17 19
REMARK H PARENT
ROOT
ATOM      1  S   UNL     1     -31.268   0.677  10.142  1.00  0.00    -0.106 SA
ENDROOT
BRANCH   1   2
ATOM      2  C   UNL     1     -30.369   1.037  11.688  1.00  0.00    +0.073 C 
ATOM      3  C   UNL     1     -31.231   0.782  12.913  1.00  0.00    +0.016 C 
ENDBRANCH   1   2
BRANCH   1   4
ATOM      4  C   UNL     1     -32.115   2.204   9.869  1.00  0.00    +0.111 A 
ATOM      5  C   UNL     1     -33.489   2.270  10.069  1.00  0.00    +0.072 A 
ATOM      6  N   UNL     1     -31.443   3.312   9.489  1.00  0.00    -0.226 NA
ATOM      7  C   UNL     1     -34.533   1.415  10.452  1.00  0.00    +0.149 A 
ATOM      8  C   UNL     1     -34.098   3.496   9.853  1.00  0.00    +0.167 A 
ATOM      9  C   UNL     1     -32.135   4.453   9.299  1.00  0.00    +0.129 A 
ATOM     10  N   UNL     1     -35.718   2.020  10.483  1.00  0.00    -0.174 NA
ATOM     11  N   UNL     1     -35.458   3.314  10.114  1.00  0.00    -0.215 N 
ATOM     12  N   UNL     1     -33.458   4.620   9.468  1.00  0.00    -0.213 NA
ATOM     13  C   UNL     1     -31.345   5.662   8.902  1.00  0.00    +0.090 C 
BRANCH  11  14
ATOM     14  C   UNL     1     -36.532   4.256  10.044  1.00  0.00    +0.067 A 
ATOM     15  C   UNL     1     -36.553   5.336  10.945  1.00  0.00    +0.028 A 
ATOM     16  C   UNL     1     -37.565   4.138   9.106  1.00  0.00    +0.028 A 
ATOM     17  C   UNL     1     -37.587   6.275  10.905  1.00  0.00    +0.002 A 
ATOM     18  C   UNL     1     -38.598   5.082   9.073  1.00  0.00    +0.002 A 
ATOM     19  C   UNL     1     -38.609   6.147   9.969  1.00  0.00    +0.000 A 
ENDBRANCH  11  14
ENDBRANCH   1   4
TORSDOF 3
ENDMDL
MODEL 3
REMARK VINA RESULT:    -7.239      3.157      5.156
REMARK INTER + INTRA:          -8.904
REMARK INTER:                  -8.499
REMARK INTRA:                  -0.405
REMARK UNBOUND:                -0.395
REMARK SMILES CCSc1nc(C)nc2c1cnn2-c1ccccc1
REMARK SMILES IDX 3 1 2 2 1 3 4 4 10 5 5 6 11 7 9 8 6 9 12 10 13 11 8 12 7 13
REMARK SMILES IDX 14 14 15 15 19 16 16 17 18 18 17 19
REMARK H PARENT
ROOT
ATOM      1  S   UNL     1     -34.046   3.584   8.820  1.00  0.00    -0.106 SA
ENDROOT
BRANCH   1   2
ATOM      2  C   UNL     1     -35.463   4.323   9.699  1.00  0.00    +0.073 C 
ATOM      3  C   UNL     1     -35.023   5.088  10.935  1.00  0.00    +0.016 C 
ENDBRANCH   1   2
BRANCH   1   4
ATOM      4  C   UNL     1     -33.520   4.935   7.809  1.00  0.00    +0.111 A 
ATOM      5  C   UNL     1     -32.386   5.657   8.167  1.00  0.00    +0.072 A 
ATOM      6  N   UNL     1     -34.190   5.263   6.685  1.00  0.00    -0.226 NA
ATOM      7  C   UNL     1     -31.428   5.660   9.191  1.00  0.00    +0.149 A 
ATOM      8  C   UNL     1     -32.012   6.697   7.331  1.00  0.00    +0.167 A 
ATOM      9  C   UNL     1     -33.745   6.299   5.946  1.00  0.00    +0.129 A 
ATOM     10  N   UNL     1     -30.511   6.614   9.044  1.00  0.00    -0.174 NA
ATOM     11  N   UNL     1     -30.865   7.262   7.890  1.00  0.00    -0.215 N 
ATOM     12  N   UNL     1     -32.663   7.054   6.204  1.00  0.00    -0.213 NA
ATOM     13  C   UNL     1     -34.506   6.610   4.693  1.00  0.00    +0.090 C 
BRANCH  11  14
ATOM     14  C   UNL     1     -30.075   8.362   7.429  1.00  0.00    +0.067 A 
ATOM     15  C   UNL     1     -28.693   8.179   7.242  1.00  0.00    +0.028 A 
ATOM     16  C   UNL     1     -30.633   9.617   7.157  1.00  0.00    +0.028 A 
ATOM     17  C   UNL     1     -27.891   9.231   6.794  1.00  0.00    +0.002 A 
ATOM     18  C   UNL     1     -29.824  10.666   6.708  1.00  0.00    +0.002 A 
ATOM     19  C   UNL     1     -28.457  10.474   6.526  1.00  0.00    +0.000 A 
ENDBRANCH  11  14
ENDBRANCH   1   4
TORSDOF 3
ENDMDL
MODEL 4
REMARK VINA RESULT:    -6.985      8.185      9.729
REMARK INTER + INTRA:          -8.605
REMARK INTER:                  -8.168
REMARK INTRA:                  -0.437
REMARK UNBOUND:                -0.395
REMARK SMILES CCSc1nc(C)nc2c1cnn2-c1ccccc1
REMARK SMILES IDX 3 1 2 2 1 3 4 4 10 5 5 6 11 7 9 8 6 9 12 10 13 11 8 12 7 13
REMARK SMILES IDX 14 14 15 15 19 16 16 17 18 18 17 19
REMARK H PARENT
ROOT
ATOM      1  S   UNL     1     -31.759   0.785  12.350  1.00  0.00    -0.106 SA
ENDROOT
BRANCH   1   2
ATOM      2  C   UNL     1     -32.087  -0.927  11.810  1.00  0.00    +0.073 C 
ATOM      3  C   UNL     1     -31.409  -1.239  10.487  1.00  0.00    +0.016 C 
ENDBRANCH   1   2
BRANCH   1   4
ATOM      4  C   UNL     1     -30.054   0.686  12.805  1.00  0.00    +0.111 A 
ATOM      5  C   UNL     1     -29.084   1.168  11.933  1.00  0.00    +0.072 A 
ATOM      6  N   UNL     1     -29.683   0.169  13.995  1.00  0.00    -0.226 NA
ATOM      7  C   UNL     1     -29.020   1.764  10.666  1.00  0.00    +0.149 A 
ATOM      8  C   UNL     1     -27.765   1.077  12.348  1.00  0.00    +0.167 A 
ATOM      9  C   UNL     1     -28.369   0.121  14.297  1.00  0.00    +0.129 A 
ATOM     10  N   UNL     1     -27.776   2.038  10.280  1.00  0.00    -0.174 NA
ATOM     11  N   UNL     1     -26.989   1.616  11.320  1.00  0.00    -0.215 N 
ATOM     12  N   UNL     1     -27.359   0.561  13.527  1.00  0.00    -0.213 NA
ATOM     13  C   UNL     1     -28.006  -0.437  15.638  1.00  0.00    +0.090 C 
BRANCH  11  14
ATOM     14  C   UNL     1     -25.569   1.767  11.235  1.00  0.00    +0.067 A 
ATOM     15  C   UNL     1     -24.761   0.616  11.198  1.00  0.00    +0.028 A 
ATOM     16  C   UNL     1     -24.956   3.025  11.187  1.00  0.00    +0.028 A 
ATOM     17  C   UNL     1     -23.371   0.726  11.116  1.00  0.00    +0.002 A 
ATOM     18  C   UNL     1     -23.563   3.128  11.105  1.00  0.00    +0.002 A 
ATOM     19  C   UNL     1     -22.772   1.982  11.069  1.00  0.00    +0.000 A 
ENDBRANCH  11  14
ENDBRANCH   1   4
TORSDOF 3
ENDMDL
MODEL 5
REMARK VINA RESULT:    -6.496      3.460      6.197
REMARK INTER + INTRA:          -8.030
REMARK INTER:                  -7.620
REMARK INTRA:                  -0.410
REMARK UNBOUND:                -0.395
REMARK SMILES CCSc1nc(C)nc2c1cnn2-c1ccccc1
REMARK SMILES IDX 3 1 2 2 1 3 4 4 10 5 5 6 11 7 9 8 6 9 12 10 13 11 8 12 7 13
REMARK SMILES IDX 14 14 15 15 19 16 16 17 18 18 17 19
REMARK H PARENT
ROOT
ATOM      1  S   UNL     1     -35.002   5.741   8.130  1.00  0.00    -0.106 SA
ENDROOT
BRANCH   1   2
ATOM      2  C   UNL     1     -34.392   5.211   6.495  1.00  0.00    +0.073 C 
ATOM      3  C   UNL     1     -33.485   6.254   5.867  1.00  0.00    +0.016 C 
ENDBRANCH   1   2
BRANCH   1   4
ATOM      4  C   UNL     1     -34.933   4.225   9.036  1.00  0.00    +0.111 A 
ATOM      5  C   UNL     1     -33.699   3.645   9.307  1.00  0.00    +0.072 A 
ATOM      6  N   UNL     1     -36.060   3.635   9.487  1.00  0.00    -0.226 NA
ATOM      7  C   UNL     1     -32.344   3.903   9.054  1.00  0.00    +0.149 A 
ATOM      8  C   UNL     1     -33.704   2.464  10.032  1.00  0.00    +0.167 A 
ATOM      9  C   UNL     1     -35.953   2.482  10.177  1.00  0.00    +0.129 A 
ATOM     10  N   UNL     1     -31.533   2.978   9.563  1.00  0.00    -0.174 NA
ATOM     11  N   UNL     1     -32.369   2.081  10.174  1.00  0.00    -0.215 N 
ATOM     12  N   UNL     1     -34.811   1.844  10.492  1.00  0.00    -0.213 NA
ATOM     13  C   UNL     1     -37.227   1.875  10.679  1.00  0.00    +0.090 C 
BRANCH  11  14
ATOM     14  C   UNL     1     -31.816   0.940  10.836  1.00  0.00    +0.067 A 
ATOM     15  C   UNL     1     -31.682   0.961  12.236  1.00  0.00    +0.028 A 
ATOM     16  C   UNL     1     -31.402  -0.199  10.135  1.00  0.00    +0.028 A 
ATOM     17  C   UNL     1     -31.145  -0.135  12.915  1.00  0.00    +0.002 A 
ATOM     18  C   UNL     1     -30.865  -1.293  10.822  1.00  0.00    +0.002 A 
ATOM     19  C   UNL     1     -30.737  -1.262  12.208  1.00  0.00    +0.000 A 
ENDBRANCH  11  14
ENDBRANCH   1   4
TORSDOF 3
ENDMDL
MODEL 6
REMARK VINA RESULT:    -5.913      3.250      6.304
REMARK INTER + INTRA:          -7.344
REMARK INTER:                  -7.158
REMARK INTRA:                  -0.186
REMARK UNBOUND:                -0.395
REMARK SMILES CCSc1nc(C)nc2c1cnn2-c1ccccc1
REMARK SMILES IDX 3 1 2 2 1 3 4 4 10 5 5 6 11 7 9 8 6 9 12 10 13 11 8 12 7 13
REMARK SMILES IDX 14 14 15 15 19 16 16 17 18 18 17 19
REMARK H PARENT
ROOT
ATOM      1  S   UNL     1     -32.928   7.637   7.521  1.00  0.00    -0.106 SA
ENDROOT
BRANCH   1   2
ATOM      2  C   UNL     1     -32.419   7.167   5.833  1.00  0.00    +0.073 C 
ATOM      3  C   UNL     1     -33.575   6.592   5.035  1.00  0.00    +0.016 C 
ENDBRANCH   1   2
BRANCH   1   4
ATOM      4  C   UNL     1     -33.481   6.086   8.162  1.00  0.00    +0.111 A 
ATOM      5  C   UNL     1     -32.550   5.173   8.645  1.00  0.00    +0.072 A 
ATOM      6  N   UNL     1     -34.796   5.785   8.210  1.00  0.00    -0.226 NA
ATOM      7  C   UNL     1     -31.158   5.077   8.791  1.00  0.00    +0.149 A 
ATOM      8  C   UNL     1     -33.041   3.979   9.148  1.00  0.00    +0.167 A 
ATOM      9  C   UNL     1     -35.166   4.590   8.714  1.00  0.00    +0.129 A 
ATOM     10  N   UNL     1     -30.770   3.927   9.338  1.00  0.00    -0.174 NA
ATOM     11  N   UNL     1     -31.933   3.239   9.565  1.00  0.00    -0.215 N 
ATOM     12  N   UNL     1     -34.347   3.644   9.205  1.00  0.00    -0.213 NA
ATOM     13  C   UNL     1     -36.637   4.309   8.771  1.00  0.00    +0.090 C 
BRANCH  11  14
ATOM     14  C   UNL     1     -31.878   1.939  10.158  1.00  0.00    +0.067 A 
ATOM     15  C   UNL     1     -30.715   1.165  10.000  1.00  0.00    +0.028 A 
ATOM     16  C   UNL     1     -32.947   1.410  10.892  1.00  0.00    +0.028 A 
ATOM     17  C   UNL     1     -30.627  -0.110  10.565  1.00  0.00    +0.002 A 
ATOM     18  C   UNL     1     -32.852   0.133  11.455  1.00  0.00    +0.002 A 
ATOM     19  C   UNL     1     -31.695  -0.625  11.293  1.00  0.00    +0.000 A 
ENDBRANCH  11  14
ENDBRANCH   1   4
TORSDOF 3
ENDMDL
MODEL 7
REMARK VINA RESULT:    -5.804      6.274      8.043
REMARK INTER + INTRA:          -7.217
REMARK INTER:                  -7.177
REMARK INTRA:                  -0.040
REMARK UNBOUND:                -0.395
REMARK SMILES CCSc1nc(C)nc2c1cnn2-c1ccccc1
REMARK SMILES IDX 3 1 2 2 1 3 4 4 10 5 5 6 11 7 9 8 6 9 12 10 13 11 8 12 7 13
REMARK SMILES IDX 14 14 15 15 19 16 16 17 18 18 17 19
REMARK H PARENT
ROOT
ATOM      1  S   UNL     1     -31.874   0.342  11.190  1.00  0.00    -0.106 SA
ENDROOT
BRANCH   1   2
ATOM      2  C   UNL     1     -31.859  -1.369  10.559  1.00  0.00    +0.073 C 
ATOM      3  C   UNL     1     -32.248  -2.370  11.633  1.00  0.00    +0.016 C 
ENDBRANCH   1   2
BRANCH   1   4
ATOM      4  C   UNL     1     -30.172   0.789  11.026  1.00  0.00    +0.111 A 
ATOM      5  C   UNL     1     -29.834   1.973  10.381  1.00  0.00    +0.072 A 
ATOM      6  N   UNL     1     -29.198   0.007  11.538  1.00  0.00    -0.226 NA
ATOM      7  C   UNL     1     -30.484   3.038   9.740  1.00  0.00    +0.149 A 
ATOM      8  C   UNL     1     -28.485   2.279  10.294  1.00  0.00    +0.167 A 
ATOM      9  C   UNL     1     -27.915   0.395  11.391  1.00  0.00    +0.129 A 
ATOM     10  N   UNL     1     -29.643   3.958   9.273  1.00  0.00    -0.174 NA
ATOM     11  N   UNL     1     -28.398   3.495   9.614  1.00  0.00    -0.215 N 
ATOM     12  N   UNL     1     -27.486   1.518  10.788  1.00  0.00    -0.213 NA
ATOM     13  C   UNL     1     -26.869  -0.490  11.996  1.00  0.00    +0.090 C 
BRANCH  11  14
ATOM     14  C   UNL     1     -27.242   4.258   9.258  1.00  0.00    +0.067 A 
ATOM     15  C   UNL     1     -26.056   4.084   9.993  1.00  0.00    +0.028 A 
ATOM     16  C   UNL     1     -27.252   5.174   8.199  1.00  0.00    +0.028 A 
ATOM     17  C   UNL     1     -24.908   4.813   9.674  1.00  0.00    +0.002 A 
ATOM     18  C   UNL     1     -26.099   5.901   7.884  1.00  0.00    +0.002 A 
ATOM     19  C   UNL     1     -24.929   5.721   8.619  1.00  0.00    +0.000 A 
ENDBRANCH  11  14
ENDBRANCH   1   4
TORSDOF 3
ENDMDL
MODEL 8
REMARK VINA RESULT:    -5.714     18.073     19.726
REMARK INTER + INTRA:          -7.111
REMARK INTER:                  -6.601
REMARK INTRA:                  -0.510
REMARK UNBOUND:                -0.395
REMARK SMILES CCSc1nc(C)nc2c1cnn2-c1ccccc1
REMARK SMILES IDX 3 1 2 2 1 3 4 4 10 5 5 6 11 7 9 8 6 9 12 10 13 11 8 12 7 13
REMARK SMILES IDX 14 14 15 15 19 16 16 17 18 18 17 19
REMARK H PARENT
ROOT
ATOM      1  S   UNL     1     -18.015   2.813   0.154  1.00  0.00    -0.106 SA
ENDROOT
BRANCH   1   2
ATOM      2  C   UNL     1     -17.546   2.285  -1.529  1.00  0.00    +0.073 C 
ATOM      3  C   UNL     1     -18.764   1.992  -2.387  1.00  0.00    +0.016 C 
ENDBRANCH   1   2
BRANCH   1   4
ATOM      4  C   UNL     1     -17.883   4.570   0.016  1.00  0.00    +0.111 A 
ATOM      5  C   UNL     1     -18.999   5.313  -0.355  1.00  0.00    +0.072 A 
ATOM      6  N   UNL     1     -16.721   5.202   0.287  1.00  0.00    -0.226 NA
ATOM      7  C   UNL     1     -20.338   5.087  -0.702  1.00  0.00    +0.149 A 
ATOM      8  C   UNL     1     -18.841   6.688  -0.433  1.00  0.00    +0.167 A 
ATOM      9  C   UNL     1     -16.675   6.544   0.172  1.00  0.00    +0.129 A 
ATOM     10  N   UNL     1     -21.001   6.206  -0.984  1.00  0.00    -0.174 NA
ATOM     11  N   UNL     1     -20.078   7.207  -0.818  1.00  0.00    -0.215 N 
ATOM     12  N   UNL     1     -17.693   7.350  -0.176  1.00  0.00    -0.213 NA
ATOM     13  C   UNL     1     -15.373   7.205   0.506  1.00  0.00    +0.090 C 
BRANCH  11  14
ATOM     14  C   UNL     1     -20.465   8.565  -1.044  1.00  0.00    +0.067 A 
ATOM     15  C   UNL     1     -21.140   9.261  -0.025  1.00  0.00    +0.028 A 
ATOM     16  C   UNL     1     -20.192   9.226  -2.248  1.00  0.00    +0.028 A 
ATOM     17  C   UNL     1     -21.533  10.589  -0.212  1.00  0.00    +0.002 A 
ATOM     18  C   UNL     1     -20.589  10.556  -2.428  1.00  0.00    +0.002 A 
ATOM     19  C   UNL     1     -21.257  11.236  -1.413  1.00  0.00    +0.000 A 
ENDBRANCH  11  14
ENDBRANCH   1   4
TORSDOF 3
ENDMDL
MODEL 9
REMARK VINA RESULT:    -5.570     18.531     20.742
REMARK INTER + INTRA:          -6.942
REMARK INTER:                  -6.561
REMARK INTRA:                  -0.381
REMARK UNBOUND:                -0.395
REMARK SMILES CCSc1nc(C)nc2c1cnn2-c1ccccc1
REMARK SMILES IDX 3 1 2 2 1 3 4 4 10 5 5 6 11 7 9 8 6 9 12 10 13 11 8 12 7 13
REMARK SMILES IDX 14 14 15 15 19 16 16 17 18 18 17 19
REMARK H PARENT
ROOT
ATOM      1  S   UNL     1     -18.991  12.357  -3.949  1.00  0.00    -0.106 SA
ENDROOT
BRANCH   1   2
ATOM      2  C   UNL     1     -20.476  12.443  -5.004  1.00  0.00    +0.073 C 
ATOM      3  C   UNL     1     -20.708  13.846  -5.537  1.00  0.00    +0.016 C 
ENDBRANCH   1   2
BRANCH   1   4
ATOM      4  C   UNL     1     -19.515  11.219  -2.702  1.00  0.00    +0.111 A 
ATOM      5  C   UNL     1     -18.949   9.950  -2.651  1.00  0.00    +0.072 A 
ATOM      6  N   UNL     1     -20.442  11.573  -1.786  1.00  0.00    -0.226 NA
ATOM      7  C   UNL     1     -17.997   9.200  -3.357  1.00  0.00    +0.149 A 
ATOM      8  C   UNL     1     -19.388   9.105  -1.644  1.00  0.00    +0.167 A 
ATOM      9  C   UNL     1     -20.804  10.670  -0.853  1.00  0.00    +0.129 A 
ATOM     10  N   UNL     1     -17.827   7.976  -2.863  1.00  0.00    -0.174 NA
ATOM     11  N   UNL     1     -18.686   7.908  -1.798  1.00  0.00    -0.215 N 
ATOM     12  N   UNL     1     -20.316   9.424  -0.718  1.00  0.00    -0.213 NA
ATOM     13  C   UNL     1     -21.816  11.114   0.158  1.00  0.00    +0.090 C 
BRANCH  11  14
ATOM     14  C   UNL     1     -18.757   6.706  -1.025  1.00  0.00    +0.067 A 
ATOM     15  C   UNL     1     -17.671   6.358  -0.203  1.00  0.00    +0.028 A 
ATOM     16  C   UNL     1     -19.875   5.864  -1.061  1.00  0.00    +0.028 A 
ATOM     17  C   UNL     1     -17.706   5.191   0.565  1.00  0.00    +0.002 A 
ATOM     18  C   UNL     1     -19.904   4.697  -0.290  1.00  0.00    +0.002 A 
ATOM     19  C   UNL     1     -18.823   4.361   0.521  1.00  0.00    +0.000 A 
ENDBRANCH  11  14
ENDBRANCH   1   4
TORSDOF 3
ENDMDL
