MODEL 1
REMARK VINA RESULT:    -8.363      0.000      0.000
REMARK INTER + INTRA:          -9.746
REMARK INTER:                  -9.341
REMARK INTRA:                  -0.406
REMARK UNBOUND:                -0.406
REMARK SMILES Cn1ncc2c(Nc3cccc(Cl)c3)ncnc21
REMARK SMILES IDX 7 1 6 3 2 4 3 5 18 6 4 7 17 8 5 9 16 10 15 11 1 12 8 13
REMARK SMILES IDX 14 14 9 15 12 16 10 17 11 18 13 19
REMARK H PARENT 7 2
ROOT
ATOM      1  N   UNL     1     -31.642   8.966   7.455  1.00  0.00    -0.339 N 
ATOM      2  H   UNL     1     -31.957   9.169   8.393  1.00  0.00    +0.168 HD
ENDROOT
BRANCH   1   3
ATOM      3  C   UNL     1     -30.581   9.782   7.036  1.00  0.00    +0.144 A 
ATOM      4  N   UNL     1     -27.076   9.523   6.806  1.00  0.00    -0.250 N 
ATOM      5  N   UNL     1     -27.227   8.274   7.307  1.00  0.00    -0.179 NA
ATOM      6  C   UNL     1     -28.259  10.197   6.655  1.00  0.00    +0.163 A 
ATOM      7  C   UNL     1     -28.549   8.169   7.473  1.00  0.00    +0.149 A 
ATOM      8  N   UNL     1     -28.429  11.443   6.186  1.00  0.00    -0.217 NA
ATOM      9  C   UNL     1     -29.250   9.332   7.085  1.00  0.00    +0.082 A 
ATOM     10  C   UNL     1     -29.727  11.784   6.175  1.00  0.00    +0.226 A 
ATOM     11  N   UNL     1     -30.782  11.040   6.565  1.00  0.00    -0.218 NA
ATOM     12  C   UNL     1     -25.756  10.007   6.492  1.00  0.00    +0.176 C 
ENDBRANCH   1   3
BRANCH   1  13
ATOM     13  C   UNL     1     -32.349   7.923   6.829  1.00  0.00    +0.041 A 
ATOM     14  C   UNL     1     -33.224   7.057   7.494  1.00  0.00    +0.046 A 
ATOM     15  C   UNL     1     -32.169   7.734   5.446  1.00  0.00    +0.026 A 
ATOM     16  C   UNL     1     -33.892   6.042   6.802  1.00  0.00    +0.043 A 
ATOM     17  C   UNL     1     -32.836   6.718   4.753  1.00  0.00    +0.004 A 
ATOM     18  C   UNL     1     -33.702   5.869   5.434  1.00  0.00    +0.020 A 
ATOM     19 Cl   UNL     1     -34.963   4.992   7.648  1.00  0.00    -0.084 Cl
ENDBRANCH   1  13
TORSDOF 2
ENDMDL
MODEL 2
REMARK VINA RESULT:    -8.126      1.107      2.336
REMARK INTER + INTRA:          -9.482
REMARK INTER:                  -9.119
REMARK INTRA:                  -0.363
REMARK UNBOUND:                -0.406
REMARK SMILES Cn1ncc2c(Nc3cccc(Cl)c3)ncnc21
REMARK SMILES IDX 7 1 6 3 2 4 3 5 18 6 4 7 17 8 5 9 16 10 15 11 1 12 8 13
REMARK SMILES IDX 14 14 9 15 12 16 10 17 11 18 13 19
REMARK H PARENT 7 2
ROOT
ATOM      1  N   UNL     1     -30.970   8.096   7.613  1.00  0.00    -0.339 N 
ATOM      2  H   UNL     1     -31.326   8.824   8.216  1.00  0.00    +0.168 HD
ENDROOT
BRANCH   1   3
ATOM      3  C   UNL     1     -29.569   8.009   7.613  1.00  0.00    +0.144 A 
ATOM      4  N   UNL     1     -26.874   9.964   6.467  1.00  0.00    -0.250 N 
ATOM      5  N   UNL     1     -27.812  10.837   6.029  1.00  0.00    -0.179 NA
ATOM      6  C   UNL     1     -27.401   8.859   7.080  1.00  0.00    +0.163 A 
ATOM      7  C   UNL     1     -28.961  10.253   6.383  1.00  0.00    +0.149 A 
ATOM      8  N   UNL     1     -26.727   7.827   7.613  1.00  0.00    -0.217 NA
ATOM      9  C   UNL     1     -28.775   9.018   7.043  1.00  0.00    +0.082 A 
ATOM     10  C   UNL     1     -27.566   6.917   8.132  1.00  0.00    +0.226 A 
ATOM     11  N   UNL     1     -28.913   6.952   8.160  1.00  0.00    -0.218 NA
ATOM     12  C   UNL     1     -25.479  10.259   6.261  1.00  0.00    +0.176 C 
ENDBRANCH   1   3
BRANCH   1  13
ATOM     13  C   UNL     1     -31.971   7.369   6.942  1.00  0.00    +0.041 A 
ATOM     14  C   UNL     1     -32.782   6.405   7.550  1.00  0.00    +0.046 A 
ATOM     15  C   UNL     1     -32.175   7.625   5.574  1.00  0.00    +0.026 A 
ATOM     16  C   UNL     1     -33.757   5.723   6.816  1.00  0.00    +0.043 A 
ATOM     17  C   UNL     1     -33.150   6.943   4.838  1.00  0.00    +0.004 A 
ATOM     18  C   UNL     1     -33.945   5.988   5.463  1.00  0.00    +0.020 A 
ATOM     19 Cl   UNL     1     -34.740   4.541   7.592  1.00  0.00    -0.084 Cl
ENDBRANCH   1  13
TORSDOF 2
ENDMDL
MODEL 3
REMARK VINA RESULT:    -8.085      4.441      6.478
REMARK INTER + INTRA:          -9.436
REMARK INTER:                  -9.165
REMARK INTRA:                  -0.271
REMARK UNBOUND:                -0.406
REMARK SMILES Cn1ncc2c(Nc3cccc(Cl)c3)ncnc21
REMARK SMILES IDX 7 1 6 3 2 4 3 5 18 6 4 7 17 8 5 9 16 10 15 11 1 12 8 13
REMARK SMILES IDX 14 14 9 15 12 16 10 17 11 18 13 19
REMARK H PARENT 7 2
ROOT
ATOM      1  N   UNL     1     -25.905   5.223   8.282  1.00  0.00    -0.339 N 
ATOM      2  H   UNL     1     -25.302   4.878   7.547  1.00  0.00    +0.168 HD
ENDROOT
BRANCH   1   3
ATOM      3  C   UNL     1     -26.510   6.451   7.973  1.00  0.00    +0.144 A 
ATOM      4  N   UNL     1     -25.616   9.400   6.268  1.00  0.00    -0.250 N 
ATOM      5  N   UNL     1     -24.422   8.801   6.047  1.00  0.00    -0.179 NA
ATOM      6  C   UNL     1     -26.491   8.625   6.981  1.00  0.00    +0.163 A 
ATOM      7  C   UNL     1     -24.560   7.613   6.643  1.00  0.00    +0.149 A 
ATOM      8  N   UNL     1     -27.741   8.944   7.353  1.00  0.00    -0.217 NA
ATOM      9  C   UNL     1     -25.827   7.439   7.244  1.00  0.00    +0.082 A 
ATOM     10  C   UNL     1     -28.312   7.943   8.041  1.00  0.00    +0.226 A 
ATOM     11  N   UNL     1     -27.778   6.748   8.362  1.00  0.00    -0.218 NA
ATOM     12  C   UNL     1     -25.848  10.728   5.762  1.00  0.00    +0.176 C 
ENDBRANCH   1   3
BRANCH   1  13
ATOM     13  C   UNL     1     -25.973   4.381   9.407  1.00  0.00    +0.041 A 
ATOM     14  C   UNL     1     -27.085   3.599   9.735  1.00  0.00    +0.046 A 
ATOM     15  C   UNL     1     -24.855   4.317  10.259  1.00  0.00    +0.026 A 
ATOM     16  C   UNL     1     -27.079   2.786  10.873  1.00  0.00    +0.043 A 
ATOM     17  C   UNL     1     -24.847   3.504  11.397  1.00  0.00    +0.004 A 
ATOM     18  C   UNL     1     -25.964   2.735  11.705  1.00  0.00    +0.020 A 
ATOM     19 Cl   UNL     1     -28.462   1.834  11.251  1.00  0.00    -0.084 Cl
ENDBRANCH   1  13
TORSDOF 2
ENDMDL
MODEL 4
REMARK VINA RESULT:    -7.947      6.427      8.754
REMARK INTER + INTRA:          -9.282
REMARK INTER:                  -8.987
REMARK INTRA:                  -0.294
REMARK UNBOUND:                -0.406
REMARK SMILES Cn1ncc2c(Nc3cccc(Cl)c3)ncnc21
REMARK SMILES IDX 7 1 6 3 2 4 3 5 18 6 4 7 17 8 5 9 16 10 15 11 1 12 8 13
REMARK SMILES IDX 14 14 9 15 12 16 10 17 11 18 13 19
REMARK H PARENT 7 2
ROOT
ATOM      1  N   UNL     1     -26.536   4.662   9.701  1.00  0.00    -0.339 N 
ATOM      2  H   UNL     1     -27.391   4.642  10.238  1.00  0.00    +0.168 HD
ENDROOT
BRANCH   1   3
ATOM      3  C   UNL     1     -25.605   3.691  10.101  1.00  0.00    +0.144 A 
ATOM      4  N   UNL     1     -25.295   0.189   9.890  1.00  0.00    -0.250 N 
ATOM      5  N   UNL     1     -26.485   0.214   9.245  1.00  0.00    -0.179 NA
ATOM      6  C   UNL     1     -24.852   1.429  10.266  1.00  0.00    +0.163 A 
ATOM      7  C   UNL     1     -26.792   1.515   9.219  1.00  0.00    +0.149 A 
ATOM      8  N   UNL     1     -23.715   1.722  10.918  1.00  0.00    -0.217 NA
ATOM      9  C   UNL     1     -25.815   2.326   9.838  1.00  0.00    +0.082 A 
ATOM     10  C   UNL     1     -23.602   3.044  11.123  1.00  0.00    +0.226 A 
ATOM     11  N   UNL     1     -24.462   4.016  10.759  1.00  0.00    -0.218 NA
ATOM     12  C   UNL     1     -24.635  -1.072  10.113  1.00  0.00    +0.176 C 
ENDBRANCH   1   3
BRANCH   1  13
ATOM     13  C   UNL     1     -26.512   5.652   8.701  1.00  0.00    +0.041 A 
ATOM     14  C   UNL     1     -27.590   6.491   8.401  1.00  0.00    +0.046 A 
ATOM     15  C   UNL     1     -25.331   5.812   7.952  1.00  0.00    +0.026 A 
ATOM     16  C   UNL     1     -27.491   7.453   7.391  1.00  0.00    +0.043 A 
ATOM     17  C   UNL     1     -25.231   6.774   6.941  1.00  0.00    +0.004 A 
ATOM     18  C   UNL     1     -26.315   7.598   6.660  1.00  0.00    +0.020 A 
ATOM     19 Cl   UNL     1     -28.835   8.471   7.045  1.00  0.00    -0.084 Cl
ENDBRANCH   1  13
TORSDOF 2
ENDMDL
MODEL 5
REMARK VINA RESULT:    -7.810      3.314      6.429
REMARK INTER + INTRA:          -9.129
REMARK INTER:                  -8.850
REMARK INTRA:                  -0.279
REMARK UNBOUND:                -0.406
REMARK SMILES Cn1ncc2c(Nc3cccc(Cl)c3)ncnc21
REMARK SMILES IDX 7 1 6 3 2 4 3 5 18 6 4 7 17 8 5 9 16 10 15 11 1 12 8 13
REMARK SMILES IDX 14 14 9 15 12 16 10 17 11 18 13 19
REMARK H PARENT 7 2
ROOT
ATOM      1  N   UNL     1     -30.474   8.198   7.330  1.00  0.00    -0.339 N 
ATOM      2  H   UNL     1     -29.901   7.746   8.029  1.00  0.00    +0.168 HD
ENDROOT
BRANCH   1   3
ATOM      3  C   UNL     1     -31.593   7.440   6.952  1.00  0.00    +0.144 A 
ATOM      4  N   UNL     1     -33.562   4.886   8.367  1.00  0.00    -0.250 N 
ATOM      5  N   UNL     1     -32.742   4.975   9.441  1.00  0.00    -0.179 NA
ATOM      6  C   UNL     1     -33.239   5.757   7.361  1.00  0.00    +0.163 A 
ATOM      7  C   UNL     1     -31.881   5.935   9.090  1.00  0.00    +0.149 A 
ATOM      8  N   UNL     1     -33.863   5.901   6.181  1.00  0.00    -0.217 NA
ATOM      9  C   UNL     1     -32.135   6.465   7.806  1.00  0.00    +0.082 A 
ATOM     10  C   UNL     1     -33.276   6.852   5.436  1.00  0.00    +0.226 A 
ATOM     11  N   UNL     1     -32.205   7.607   5.751  1.00  0.00    -0.218 NA
ATOM     12  C   UNL     1     -34.643   3.934   8.376  1.00  0.00    +0.176 C 
ENDBRANCH   1   3
BRANCH   1  13
ATOM     13  C   UNL     1     -29.996   9.460   6.929  1.00  0.00    +0.041 A 
ATOM     14  C   UNL     1     -28.716   9.686   6.412  1.00  0.00    +0.046 A 
ATOM     15  C   UNL     1     -30.855  10.567   7.053  1.00  0.00    +0.026 A 
ATOM     16  C   UNL     1     -28.312  10.971   6.035  1.00  0.00    +0.043 A 
ATOM     17  C   UNL     1     -30.453  11.852   6.677  1.00  0.00    +0.004 A 
ATOM     18  C   UNL     1     -29.175  12.055   6.165  1.00  0.00    +0.020 A 
ATOM     19 Cl   UNL     1     -26.731  11.218   5.401  1.00  0.00    -0.084 Cl
ENDBRANCH   1  13
TORSDOF 2
ENDMDL
MODEL 6
REMARK VINA RESULT:    -7.796      5.088      8.432
REMARK INTER + INTRA:          -9.114
REMARK INTER:                  -8.840
REMARK INTRA:                  -0.273
REMARK UNBOUND:                -0.406
REMARK SMILES Cn1ncc2c(Nc3cccc(Cl)c3)ncnc21
REMARK SMILES IDX 7 1 6 3 2 4 3 5 18 6 4 7 17 8 5 9 16 10 15 11 1 12 8 13
REMARK SMILES IDX 14 14 9 15 12 16 10 17 11 18 13 19
REMARK H PARENT 7 2
ROOT
ATOM      1  N   UNL     1     -34.238   5.736   8.868  1.00  0.00    -0.339 N 
ATOM      2  H   UNL     1     -33.610   5.624   9.651  1.00  0.00    +0.168 HD
ENDROOT
BRANCH   1   3
ATOM      3  C   UNL     1     -35.566   5.396   9.166  1.00  0.00    +0.144 A 
ATOM      4  N   UNL     1     -37.256   2.665  10.611  1.00  0.00    -0.250 N 
ATOM      5  N   UNL     1     -36.034   2.097  10.746  1.00  0.00    -0.179 NA
ATOM      6  C   UNL     1     -37.220   3.905  10.031  1.00  0.00    +0.163 A 
ATOM      7  C   UNL     1     -35.211   3.018  10.232  1.00  0.00    +0.149 A 
ATOM      8  N   UNL     1     -38.264   4.708   9.768  1.00  0.00    -0.217 NA
ATOM      9  C   UNL     1     -35.887   4.168   9.770  1.00  0.00    +0.082 A 
ATOM     10  C   UNL     1     -37.861   5.853   9.194  1.00  0.00    +0.226 A 
ATOM     11  N   UNL     1     -36.603   6.229   8.888  1.00  0.00    -0.218 NA
ATOM     12  C   UNL     1     -38.423   1.953  11.064  1.00  0.00    +0.176 C 
ENDBRANCH   1   3
BRANCH   1  13
ATOM     13  C   UNL     1     -33.612   6.203   7.697  1.00  0.00    +0.041 A 
ATOM     14  C   UNL     1     -32.465   7.003   7.686  1.00  0.00    +0.046 A 
ATOM     15  C   UNL     1     -34.171   5.845   6.456  1.00  0.00    +0.026 A 
ATOM     16  C   UNL     1     -31.900   7.429   6.480  1.00  0.00    +0.043 A 
ATOM     17  C   UNL     1     -33.606   6.270   5.249  1.00  0.00    +0.004 A 
ATOM     18  C   UNL     1     -32.465   7.065   5.261  1.00  0.00    +0.020 A 
ATOM     19 Cl   UNL     1     -30.487   8.413   6.498  1.00  0.00    -0.084 Cl
ENDBRANCH   1  13
TORSDOF 2
ENDMDL
MODEL 7
REMARK VINA RESULT:    -7.726      4.876      8.432
REMARK INTER + INTRA:          -9.036
REMARK INTER:                  -8.709
REMARK INTRA:                  -0.326
REMARK UNBOUND:                -0.406
REMARK SMILES Cn1ncc2c(Nc3cccc(Cl)c3)ncnc21
REMARK SMILES IDX 7 1 6 3 2 4 3 5 18 6 4 7 17 8 5 9 16 10 15 11 1 12 8 13
REMARK SMILES IDX 14 14 9 15 12 16 10 17 11 18 13 19
REMARK H PARENT 7 2
ROOT
ATOM      1  N   UNL     1     -35.017   6.611   8.112  1.00  0.00    -0.339 N 
ATOM      2  H   UNL     1     -35.664   7.364   8.298  1.00  0.00    +0.168 HD
ENDROOT
BRANCH   1   3
ATOM      3  C   UNL     1     -35.265   5.461   8.877  1.00  0.00    +0.144 A 
ATOM      4  N   UNL     1     -38.066   3.903  10.336  1.00  0.00    -0.250 N 
ATOM      5  N   UNL     1     -38.790   4.923   9.817  1.00  0.00    -0.179 NA
ATOM      6  C   UNL     1     -36.729   3.986  10.056  1.00  0.00    +0.163 A 
ATOM      7  C   UNL     1     -37.869   5.665   9.193  1.00  0.00    +0.149 A 
ATOM      8  N   UNL     1     -35.766   3.128  10.433  1.00  0.00    -0.217 NA
ATOM      9  C   UNL     1     -36.564   5.135   9.303  1.00  0.00    +0.082 A 
ATOM     10  C   UNL     1     -34.565   3.521   9.981  1.00  0.00    +0.226 A 
ATOM     11  N   UNL     1     -34.272   4.610   9.244  1.00  0.00    -0.218 NA
ATOM     12  C   UNL     1     -38.732   2.876  11.096  1.00  0.00    +0.176 C 
ENDBRANCH   1   3
BRANCH   1  13
ATOM     13  C   UNL     1     -34.048   6.918   7.138  1.00  0.00    +0.041 A 
ATOM     14  C   UNL     1     -33.021   7.851   7.320  1.00  0.00    +0.046 A 
ATOM     15  C   UNL     1     -34.111   6.248   5.902  1.00  0.00    +0.026 A 
ATOM     16  C   UNL     1     -32.095   8.103   6.304  1.00  0.00    +0.043 A 
ATOM     17  C   UNL     1     -33.185   6.500   4.885  1.00  0.00    +0.004 A 
ATOM     18  C   UNL     1     -32.172   7.431   5.087  1.00  0.00    +0.020 A 
ATOM     19 Cl   UNL     1     -30.841   9.256   6.556  1.00  0.00    -0.084 Cl
ENDBRANCH   1  13
TORSDOF 2
ENDMDL
MODEL 8
REMARK VINA RESULT:    -7.490      6.727      9.025
REMARK INTER + INTRA:          -8.772
REMARK INTER:                  -8.531
REMARK INTRA:                  -0.241
REMARK UNBOUND:                -0.406
REMARK SMILES Cn1ncc2c(Nc3cccc(Cl)c3)ncnc21
REMARK SMILES IDX 7 1 6 3 2 4 3 5 18 6 4 7 17 8 5 9 16 10 15 11 1 12 8 13
REMARK SMILES IDX 14 14 9 15 12 16 10 17 11 18 13 19
REMARK H PARENT 7 2
ROOT
ATOM      1  N   UNL     1     -25.666   4.102   8.799  1.00  0.00    -0.339 N 
ATOM      2  H   UNL     1     -25.015   3.601   8.211  1.00  0.00    +0.168 HD
ENDROOT
BRANCH   1   3
ATOM      3  C   UNL     1     -25.994   3.415   9.978  1.00  0.00    +0.144 A 
ATOM      4  N   UNL     1     -26.648   0.082  10.910  1.00  0.00    -0.250 N 
ATOM      5  N   UNL     1     -26.435  -0.228   9.609  1.00  0.00    -0.179 NA
ATOM      6  C   UNL     1     -26.514   1.417  11.182  1.00  0.00    +0.163 A 
ATOM      7  C   UNL     1     -26.159   0.957   9.054  1.00  0.00    +0.149 A 
ATOM      8  N   UNL     1     -26.663   2.022  12.371  1.00  0.00    -0.217 NA
ATOM      9  C   UNL     1     -26.191   2.023   9.980  1.00  0.00    +0.082 A 
ATOM     10  C   UNL     1     -26.457   3.345  12.271  1.00  0.00    +0.226 A 
ATOM     11  N   UNL     1     -26.139   4.053  11.168  1.00  0.00    -0.218 NA
ATOM     12  C   UNL     1     -26.979  -0.964  11.843  1.00  0.00    +0.176 C 
ENDBRANCH   1   3
BRANCH   1  13
ATOM     13  C   UNL     1     -26.063   5.348   8.279  1.00  0.00    +0.041 A 
ATOM     14  C   UNL     1     -25.220   6.203   7.562  1.00  0.00    +0.046 A 
ATOM     15  C   UNL     1     -27.390   5.765   8.491  1.00  0.00    +0.026 A 
ATOM     16  C   UNL     1     -25.688   7.428   7.076  1.00  0.00    +0.043 A 
ATOM     17  C   UNL     1     -27.859   6.990   8.006  1.00  0.00    +0.004 A 
ATOM     18  C   UNL     1     -27.004   7.825   7.295  1.00  0.00    +0.020 A 
ATOM     19 Cl   UNL     1     -24.627   8.460   6.196  1.00  0.00    -0.084 Cl
ENDBRANCH   1  13
TORSDOF 2
ENDMDL
MODEL 9
REMARK VINA RESULT:    -7.346      4.182      6.270
REMARK INTER + INTRA:          -8.611
REMARK INTER:                  -8.611
REMARK INTRA:                   0.001
REMARK UNBOUND:                -0.406
REMARK SMILES Cn1ncc2c(Nc3cccc(Cl)c3)ncnc21
REMARK SMILES IDX 7 1 6 3 2 4 3 5 18 6 4 7 17 8 5 9 16 10 15 11 1 12 8 13
REMARK SMILES IDX 14 14 9 15 12 16 10 17 11 18 13 19
REMARK H PARENT 7 2
ROOT
ATOM      1  N   UNL     1     -28.421   7.737   7.443  1.00  0.00    -0.339 N 
ATOM      2  H   UNL     1     -29.288   7.228   7.539  1.00  0.00    +0.168 HD
ENDROOT
BRANCH   1   3
ATOM      3  C   UNL     1     -27.291   6.985   7.800  1.00  0.00    +0.144 A 
ATOM      4  N   UNL     1     -26.652   3.872   9.318  1.00  0.00    -0.250 N 
ATOM      5  N   UNL     1     -27.997   3.737   9.396  1.00  0.00    -0.179 NA
ATOM      6  C   UNL     1     -26.255   5.048   8.739  1.00  0.00    +0.163 A 
ATOM      7  C   UNL     1     -28.450   4.869   8.847  1.00  0.00    +0.149 A 
ATOM      8  N   UNL     1     -24.995   5.462   8.524  1.00  0.00    -0.217 NA
ATOM      9  C   UNL     1     -27.416   5.728   8.416  1.00  0.00    +0.082 A 
ATOM     10  C   UNL     1     -24.976   6.668   7.934  1.00  0.00    +0.226 A 
ATOM     11  N   UNL     1     -26.028   7.429   7.571  1.00  0.00    -0.218 NA
ATOM     12  C   UNL     1     -25.803   2.824   9.822  1.00  0.00    +0.176 C 
ENDBRANCH   1   3
BRANCH   1  13
ATOM     13  C   UNL     1     -28.582   9.056   6.979  1.00  0.00    +0.041 A 
ATOM     14  C   UNL     1     -27.633   9.740   6.213  1.00  0.00    +0.046 A 
ATOM     15  C   UNL     1     -29.771   9.735   7.304  1.00  0.00    +0.026 A 
ATOM     16  C   UNL     1     -27.864  11.052   5.788  1.00  0.00    +0.043 A 
ATOM     17  C   UNL     1     -30.004  11.047   6.880  1.00  0.00    +0.004 A 
ATOM     18  C   UNL     1     -29.047  11.708   6.118  1.00  0.00    +0.020 A 
ATOM     19 Cl   UNL     1     -26.677  11.868   4.846  1.00  0.00    -0.084 Cl
ENDBRANCH   1  13
TORSDOF 2
ENDMDL
