REMARK SMILES O=C(Nc1cccc2ccccc12)c1ccccc1O
REMARK SMILES IDX 19 1 14 2 15 3 16 4 17 5 18 6 20 7 2 9 1 10 3 11 4 13 13 14
REMARK SMILES IDX 5 15 12 16 8 17 6 18 11 19 9 20 7 21 10 22
REMARK H PARENT 20 8 3 12
ROOT
ATOM      1  C   UNL     1      -3.679  -1.344   0.512  1.00  0.00    +0.128 A 
ATOM      2  C   UNL     1      -2.579  -0.788  -0.160  1.00  0.00    +0.081 A 
ATOM      3  C   UNL     1      -2.805   0.187  -1.144  1.00  0.00    +0.018 A 
ATOM      4  C   UNL     1      -4.105   0.626  -1.414  1.00  0.00    +0.001 A 
ATOM      5  C   UNL     1      -5.185   0.089  -0.714  1.00  0.00    +0.004 A 
ATOM      6  C   UNL     1      -4.972  -0.899   0.247  1.00  0.00    +0.047 A 
ENDROOT
BRANCH   1   7
ATOM      7  O   UNL     1      -3.559  -2.336   1.449  1.00  0.00    -0.507 OA
ATOM      8  H   UNL     1      -2.640  -2.684   1.400  1.00  0.00    +0.293 HD
ENDBRANCH   1   7
BRANCH   2   9
ATOM      9  C   UNL     1      -1.202  -1.261   0.164  1.00  0.00    +0.259 C 
ATOM     10  O   UNL     1      -1.089  -2.403   0.601  1.00  0.00    -0.269 OA
ATOM     11  N   UNL     1      -0.194  -0.329  -0.000  1.00  0.00    -0.321 N 
ATOM     12  H   UNL     1      -0.491   0.618  -0.168  1.00  0.00    +0.170 HD
BRANCH  11  13
ATOM     13  C   UNL     1       1.206  -0.519   0.158  1.00  0.00    +0.049 A 
ATOM     14  C   UNL     1       2.083   0.615   0.112  1.00  0.00    +0.005 A 
ATOM     15  C   UNL     1       1.745  -1.802   0.329  1.00  0.00    +0.027 A 
ATOM     16  C   UNL     1       1.667   1.964  -0.053  1.00  0.00    +0.011 A 
ATOM     17  C   UNL     1       3.481   0.395   0.245  1.00  0.00    -0.016 A 
ATOM     18  C   UNL     1       3.117  -1.992   0.462  1.00  0.00    +0.003 A 
ATOM     19  C   UNL     1       2.576   3.026  -0.090  1.00  0.00    +0.001 A 
ATOM     20  C   UNL     1       4.381   1.473   0.205  1.00  0.00    +0.009 A 
ATOM     21  C   UNL     1       3.977  -0.902   0.420  1.00  0.00    +0.009 A 
ATOM     22  C   UNL     1       3.934   2.780   0.038  1.00  0.00    +0.001 A 
ENDBRANCH  11  13
ENDBRANCH   2   9
TORSDOF 3
