MODEL 1
REMARK VINA RESULT:    -9.421      0.000      0.000
REMARK INTER + INTRA:         -11.707
REMARK INTER:                 -11.073
REMARK INTRA:                  -0.634
REMARK UNBOUND:                -0.634
REMARK SMILES Cc1nc2ccccc2c(Oc2ccccc2)c1-c1ccccc1
REMARK SMILES IDX 1 1 2 2 18 3 10 4 9 5 8 6 7 7 6 8 5 9 4 10 3 11 19 12 20 13
REMARK SMILES IDX 24 14 21 15 23 16 22 17 11 18 12 19 13 20 17 21 14 22 16 23
REMARK SMILES IDX 15 24
REMARK H PARENT
ROOT
ATOM      1  C   UNL     1     -30.066   2.017  10.380  1.00  0.00    +0.067 C 
ATOM      2  C   UNL     1     -28.699   2.642  10.345  1.00  0.00    +0.050 A 
ATOM      3  C   UNL     1     -27.680   2.228  11.210  1.00  0.00    +0.046 A 
ATOM      4  C   UNL     1     -26.446   2.891  11.073  1.00  0.00    +0.146 A 
ATOM      5  C   UNL     1     -26.235   3.875  10.083  1.00  0.00    +0.044 A 
ATOM      6  C   UNL     1     -25.001   4.533   9.877  1.00  0.00    +0.014 A 
ATOM      7  C   UNL     1     -24.864   5.507   8.890  1.00  0.00    +0.001 A 
ATOM      8  C   UNL     1     -25.956   5.834   8.100  1.00  0.00    +0.002 A 
ATOM      9  C   UNL     1     -27.177   5.182   8.301  1.00  0.00    +0.029 A 
ATOM     10  C   UNL     1     -27.337   4.206   9.277  1.00  0.00    +0.074 A 
ATOM     11  N   UNL     1     -28.535   3.617   9.410  1.00  0.00    -0.252 NA
ENDROOT
BRANCH   3  12
ATOM     12  C   UNL     1     -27.875   1.144  12.184  1.00  0.00    -0.013 A 
ATOM     13  C   UNL     1     -28.241   1.430  13.509  1.00  0.00    +0.009 A 
ATOM     14  C   UNL     1     -27.708  -0.199  11.812  1.00  0.00    +0.009 A 
ATOM     15  C   UNL     1     -28.431   0.404  14.435  1.00  0.00    +0.001 A 
ATOM     16  C   UNL     1     -27.901  -1.227  12.738  1.00  0.00    +0.001 A 
ATOM     17  C   UNL     1     -28.261  -0.925  14.050  1.00  0.00    +0.000 A 
ENDBRANCH   3  12
BRANCH   4  18
ATOM     18  O   UNL     1     -25.374   2.529  11.871  1.00  0.00    -0.456 OA
BRANCH  18  19
ATOM     19  C   UNL     1     -24.421   1.705  11.308  1.00  0.00    +0.127 A 
ATOM     20  C   UNL     1     -23.136   2.245  11.208  1.00  0.00    +0.047 A 
ATOM     21  C   UNL     1     -24.658   0.394  10.887  1.00  0.00    +0.047 A 
ATOM     22  C   UNL     1     -22.097   1.489  10.665  1.00  0.00    +0.004 A 
ATOM     23  C   UNL     1     -23.615  -0.362  10.345  1.00  0.00    +0.004 A 
ATOM     24  C   UNL     1     -22.337   0.185  10.232  1.00  0.00    +0.000 A 
ENDBRANCH  18  19
ENDBRANCH   4  18
TORSDOF 3
ENDMDL
MODEL 2
REMARK VINA RESULT:    -9.374      1.815      4.528
REMARK INTER + INTRA:         -11.652
REMARK INTER:                 -10.380
REMARK INTRA:                  -1.271
REMARK UNBOUND:                -0.634
REMARK SMILES Cc1nc2ccccc2c(Oc2ccccc2)c1-c1ccccc1
REMARK SMILES IDX 1 1 2 2 18 3 10 4 9 5 8 6 7 7 6 8 5 9 4 10 3 11 19 12 20 13
REMARK SMILES IDX 24 14 21 15 23 16 22 17 11 18 12 19 13 20 17 21 14 22 16 23
REMARK SMILES IDX 15 24
REMARK H PARENT
ROOT
ATOM      1  C   UNL     1     -30.436   3.315   9.267  1.00  0.00    +0.067 C 
ATOM      2  C   UNL     1     -29.153   2.903   9.936  1.00  0.00    +0.050 A 
ATOM      3  C   UNL     1     -29.060   1.723  10.682  1.00  0.00    +0.046 A 
ATOM      4  C   UNL     1     -27.804   1.450  11.254  1.00  0.00    +0.146 A 
ATOM      5  C   UNL     1     -26.690   2.291  11.039  1.00  0.00    +0.044 A 
ATOM      6  C   UNL     1     -25.398   2.034  11.552  1.00  0.00    +0.014 A 
ATOM      7  C   UNL     1     -24.344   2.913  11.315  1.00  0.00    +0.001 A 
ATOM      8  C   UNL     1     -24.568   4.057  10.563  1.00  0.00    +0.002 A 
ATOM      9  C   UNL     1     -25.845   4.312  10.053  1.00  0.00    +0.029 A 
ATOM     10  C   UNL     1     -26.911   3.449  10.274  1.00  0.00    +0.074 A 
ATOM     11  N   UNL     1     -28.107   3.752   9.749  1.00  0.00    -0.252 NA
ENDROOT
BRANCH   3  12
ATOM     12  C   UNL     1     -30.199   0.804  10.834  1.00  0.00    -0.013 A 
ATOM     13  C   UNL     1     -30.293  -0.354  10.046  1.00  0.00    +0.009 A 
ATOM     14  C   UNL     1     -31.211   1.058  11.773  1.00  0.00    +0.009 A 
ATOM     15  C   UNL     1     -31.369  -1.231  10.190  1.00  0.00    +0.001 A 
ATOM     16  C   UNL     1     -32.287   0.179  11.919  1.00  0.00    +0.001 A 
ATOM     17  C   UNL     1     -32.367  -0.963  11.126  1.00  0.00    +0.000 A 
ENDBRANCH   3  12
BRANCH   4  18
ATOM     18  O   UNL     1     -27.614   0.292  11.988  1.00  0.00    -0.456 OA
BRANCH  18  19
ATOM     19  C   UNL     1     -28.271   0.200  13.198  1.00  0.00    +0.127 A 
ATOM     20  C   UNL     1     -28.752  -1.069  13.531  1.00  0.00    +0.047 A 
ATOM     21  C   UNL     1     -28.437   1.261  14.091  1.00  0.00    +0.047 A 
ATOM     22  C   UNL     1     -29.419  -1.273  14.738  1.00  0.00    +0.004 A 
ATOM     23  C   UNL     1     -29.105   1.055  15.301  1.00  0.00    +0.004 A 
ATOM     24  C   UNL     1     -29.597  -0.210  15.623  1.00  0.00    +0.000 A 
ENDBRANCH  18  19
ENDBRANCH   4  18
TORSDOF 3
ENDMDL
MODEL 3
REMARK VINA RESULT:    -9.004      6.670     10.154
REMARK INTER + INTRA:         -11.217
REMARK INTER:                 -10.203
REMARK INTRA:                  -1.014
REMARK UNBOUND:                -0.634
REMARK SMILES Cc1nc2ccccc2c(Oc2ccccc2)c1-c1ccccc1
REMARK SMILES IDX 1 1 2 2 18 3 10 4 9 5 8 6 7 7 6 8 5 9 4 10 3 11 19 12 20 13
REMARK SMILES IDX 24 14 21 15 23 16 22 17 11 18 12 19 13 20 17 21 14 22 16 23
REMARK SMILES IDX 15 24
REMARK H PARENT
ROOT
ATOM      1  C   UNL     1     -33.639   5.490  12.445  1.00  0.00    +0.067 C 
ATOM      2  C   UNL     1     -34.666   5.177  11.393  1.00  0.00    +0.050 A 
ATOM      3  C   UNL     1     -34.345   4.434  10.251  1.00  0.00    +0.046 A 
ATOM      4  C   UNL     1     -35.397   4.208   9.344  1.00  0.00    +0.146 A 
ATOM      5  C   UNL     1     -36.711   4.657   9.602  1.00  0.00    +0.044 A 
ATOM      6  C   UNL     1     -37.809   4.412   8.745  1.00  0.00    +0.014 A 
ATOM      7  C   UNL     1     -39.079   4.896   9.051  1.00  0.00    +0.001 A 
ATOM      8  C   UNL     1     -39.266   5.629  10.214  1.00  0.00    +0.002 A 
ATOM      9  C   UNL     1     -38.182   5.869  11.064  1.00  0.00    +0.029 A 
ATOM     10  C   UNL     1     -36.907   5.394  10.781  1.00  0.00    +0.074 A 
ATOM     11  N   UNL     1     -35.914   5.657  11.644  1.00  0.00    -0.252 NA
ENDROOT
BRANCH   3  12
ATOM     12  C   UNL     1     -32.996   3.894  10.025  1.00  0.00    -0.013 A 
ATOM     13  C   UNL     1     -32.677   2.584  10.415  1.00  0.00    +0.009 A 
ATOM     14  C   UNL     1     -32.001   4.671   9.410  1.00  0.00    +0.009 A 
ATOM     15  C   UNL     1     -31.398   2.066  10.200  1.00  0.00    +0.001 A 
ATOM     16  C   UNL     1     -30.722   4.151   9.193  1.00  0.00    +0.001 A 
ATOM     17  C   UNL     1     -30.421   2.850   9.589  1.00  0.00    +0.000 A 
ENDBRANCH   3  12
BRANCH   4  18
ATOM     18  O   UNL     1     -35.176   3.461   8.200  1.00  0.00    -0.456 OA
BRANCH  18  19
ATOM     19  C   UNL     1     -34.728   4.140   7.084  1.00  0.00    +0.127 A 
ATOM     20  C   UNL     1     -34.591   3.374   5.924  1.00  0.00    +0.047 A 
ATOM     21  C   UNL     1     -34.454   5.509   7.048  1.00  0.00    +0.047 A 
ATOM     22  C   UNL     1     -34.156   3.965   4.738  1.00  0.00    +0.004 A 
ATOM     23  C   UNL     1     -34.020   6.101   5.859  1.00  0.00    +0.004 A 
ATOM     24  C   UNL     1     -33.869   5.330   4.706  1.00  0.00    +0.000 A 
ENDBRANCH  18  19
ENDBRANCH   4  18
TORSDOF 3
ENDMDL
MODEL 4
REMARK VINA RESULT:    -8.796      6.303      8.622
REMARK INTER + INTRA:         -10.973
REMARK INTER:                 -11.093
REMARK INTRA:                   0.120
REMARK UNBOUND:                -0.634
REMARK SMILES Cc1nc2ccccc2c(Oc2ccccc2)c1-c1ccccc1
REMARK SMILES IDX 1 1 2 2 18 3 10 4 9 5 8 6 7 7 6 8 5 9 4 10 3 11 19 12 20 13
REMARK SMILES IDX 24 14 21 15 23 16 22 17 11 18 12 19 13 20 17 21 14 22 16 23
REMARK SMILES IDX 15 24
REMARK H PARENT
ROOT
ATOM      1  C   UNL     1     -31.979  10.732   8.061  1.00  0.00    +0.067 C 
ATOM      2  C   UNL     1     -30.687  10.600   7.305  1.00  0.00    +0.050 A 
ATOM      3  C   UNL     1     -30.160   9.349   6.963  1.00  0.00    +0.046 A 
ATOM      4  C   UNL     1     -28.946   9.362   6.252  1.00  0.00    +0.146 A 
ATOM      5  C   UNL     1     -28.326  10.569   5.861  1.00  0.00    +0.044 A 
ATOM      6  C   UNL     1     -27.132  10.632   5.106  1.00  0.00    +0.014 A 
ATOM      7  C   UNL     1     -26.564  11.857   4.764  1.00  0.00    +0.001 A 
ATOM      8  C   UNL     1     -27.181  13.031   5.172  1.00  0.00    +0.002 A 
ATOM      9  C   UNL     1     -28.363  12.970   5.916  1.00  0.00    +0.029 A 
ATOM     10  C   UNL     1     -28.950  11.761   6.267  1.00  0.00    +0.074 A 
ATOM     11  N   UNL     1     -30.088  11.776   6.976  1.00  0.00    -0.252 NA
ENDROOT
BRANCH   3  12
ATOM     12  C   UNL     1     -30.851   8.094   7.297  1.00  0.00    -0.013 A 
ATOM     13  C   UNL     1     -30.449   7.331   8.406  1.00  0.00    +0.009 A 
ATOM     14  C   UNL     1     -31.928   7.634   6.523  1.00  0.00    +0.009 A 
ATOM     15  C   UNL     1     -31.105   6.142   8.729  1.00  0.00    +0.001 A 
ATOM     16  C   UNL     1     -32.584   6.445   6.848  1.00  0.00    +0.001 A 
ATOM     17  C   UNL     1     -32.171   5.698   7.949  1.00  0.00    +0.000 A 
ENDBRANCH   3  12
BRANCH   4  18
ATOM     18  O   UNL     1     -28.365   8.172   5.851  1.00  0.00    -0.456 OA
BRANCH  18  19
ATOM     19  C   UNL     1     -27.175   7.818   6.453  1.00  0.00    +0.127 A 
ATOM     20  C   UNL     1     -27.267   6.847   7.453  1.00  0.00    +0.047 A 
ATOM     21  C   UNL     1     -25.925   8.334   6.100  1.00  0.00    +0.047 A 
ATOM     22  C   UNL     1     -26.120   6.410   8.116  1.00  0.00    +0.004 A 
ATOM     23  C   UNL     1     -24.777   7.894   6.763  1.00  0.00    +0.004 A 
ATOM     24  C   UNL     1     -24.875   6.935   7.772  1.00  0.00    +0.000 A 
ENDBRANCH  18  19
ENDBRANCH   4  18
TORSDOF 3
ENDMDL
MODEL 5
REMARK VINA RESULT:    -8.725      5.022      9.799
REMARK INTER + INTRA:         -10.889
REMARK INTER:                 -11.771
REMARK INTRA:                   0.882
REMARK UNBOUND:                -0.634
REMARK SMILES Cc1nc2ccccc2c(Oc2ccccc2)c1-c1ccccc1
REMARK SMILES IDX 1 1 2 2 18 3 10 4 9 5 8 6 7 7 6 8 5 9 4 10 3 11 19 12 20 13
REMARK SMILES IDX 24 14 21 15 23 16 22 17 11 18 12 19 13 20 17 21 14 22 16 23
REMARK SMILES IDX 15 24
REMARK H PARENT
ROOT
ATOM      1  C   UNL     1     -25.447   9.244   6.231  1.00  0.00    +0.067 C 
ATOM      2  C   UNL     1     -26.471   8.378   6.911  1.00  0.00    +0.050 A 
ATOM      3  C   UNL     1     -27.783   8.818   7.120  1.00  0.00    +0.046 A 
ATOM      4  C   UNL     1     -28.645   7.911   7.765  1.00  0.00    +0.146 A 
ATOM      5  C   UNL     1     -28.222   6.613   8.128  1.00  0.00    +0.044 A 
ATOM      6  C   UNL     1     -29.064   5.652   8.733  1.00  0.00    +0.014 A 
ATOM      7  C   UNL     1     -28.580   4.393   9.080  1.00  0.00    +0.001 A 
ATOM      8  C   UNL     1     -27.253   4.080   8.827  1.00  0.00    +0.002 A 
ATOM      9  C   UNL     1     -26.420   5.029   8.225  1.00  0.00    +0.029 A 
ATOM     10  C   UNL     1     -26.880   6.290   7.868  1.00  0.00    +0.074 A 
ATOM     11  N   UNL     1     -26.028   7.149   7.289  1.00  0.00    -0.252 NA
ENDROOT
BRANCH   3  12
ATOM     12  C   UNL     1     -28.245  10.138   6.665  1.00  0.00    -0.013 A 
ATOM     13  C   UNL     1     -27.612  10.786   5.592  1.00  0.00    +0.009 A 
ATOM     14  C   UNL     1     -29.331  10.777   7.285  1.00  0.00    +0.009 A 
ATOM     15  C   UNL     1     -28.049  12.037   5.154  1.00  0.00    +0.001 A 
ATOM     16  C   UNL     1     -29.770  12.028   6.845  1.00  0.00    +0.001 A 
ATOM     17  C   UNL     1     -29.128  12.658   5.781  1.00  0.00    +0.000 A 
ENDBRANCH   3  12
BRANCH   4  18
ATOM     18  O   UNL     1     -29.967   8.253   7.990  1.00  0.00    -0.456 OA
BRANCH  18  19
ATOM     19  C   UNL     1     -30.910   7.710   7.141  1.00  0.00    +0.127 A 
ATOM     20  C   UNL     1     -31.854   6.874   7.740  1.00  0.00    +0.047 A 
ATOM     21  C   UNL     1     -30.989   7.978   5.772  1.00  0.00    +0.047 A 
ATOM     22  C   UNL     1     -32.859   6.285   6.973  1.00  0.00    +0.004 A 
ATOM     23  C   UNL     1     -31.997   7.388   5.004  1.00  0.00    +0.004 A 
ATOM     24  C   UNL     1     -32.929   6.541   5.604  1.00  0.00    +0.000 A 
ENDBRANCH  18  19
ENDBRANCH   4  18
TORSDOF 3
ENDMDL
MODEL 6
REMARK VINA RESULT:    -8.611      2.082      5.169
REMARK INTER + INTRA:         -10.755
REMARK INTER:                  -9.827
REMARK INTRA:                  -0.928
REMARK UNBOUND:                -0.634
REMARK SMILES Cc1nc2ccccc2c(Oc2ccccc2)c1-c1ccccc1
REMARK SMILES IDX 1 1 2 2 18 3 10 4 9 5 8 6 7 7 6 8 5 9 4 10 3 11 19 12 20 13
REMARK SMILES IDX 24 14 21 15 23 16 22 17 11 18 12 19 13 20 17 21 14 22 16 23
REMARK SMILES IDX 15 24
REMARK H PARENT
ROOT
ATOM      1  C   UNL     1     -30.001   3.286   9.565  1.00  0.00    +0.067 C 
ATOM      2  C   UNL     1     -29.816   1.989  10.304  1.00  0.00    +0.050 A 
ATOM      3  C   UNL     1     -28.590   1.640  10.882  1.00  0.00    +0.046 A 
ATOM      4  C   UNL     1     -28.551   0.401  11.547  1.00  0.00    +0.146 A 
ATOM      5  C   UNL     1     -29.697  -0.415  11.670  1.00  0.00    +0.044 A 
ATOM      6  C   UNL     1     -29.717  -1.644  12.369  1.00  0.00    +0.014 A 
ATOM      7  C   UNL     1     -30.878  -2.409  12.440  1.00  0.00    +0.001 A 
ATOM      8  C   UNL     1     -32.031  -1.956  11.815  1.00  0.00    +0.002 A 
ATOM      9  C   UNL     1     -32.013  -0.739  11.126  1.00  0.00    +0.029 A 
ATOM     10  C   UNL     1     -30.868   0.042  11.043  1.00  0.00    +0.074 A 
ATOM     11  N   UNL     1     -30.923   1.202  10.371  1.00  0.00    -0.252 NA
ENDROOT
BRANCH   3  12
ATOM     12  C   UNL     1     -27.421   2.530  10.827  1.00  0.00    -0.013 A 
ATOM     13  C   UNL     1     -26.930   3.138  11.994  1.00  0.00    +0.009 A 
ATOM     14  C   UNL     1     -26.766   2.787   9.612  1.00  0.00    +0.009 A 
ATOM     15  C   UNL     1     -25.818   3.980  11.946  1.00  0.00    +0.001 A 
ATOM     16  C   UNL     1     -25.651   3.629   9.566  1.00  0.00    +0.001 A 
ATOM     17  C   UNL     1     -25.179   4.226  10.732  1.00  0.00    +0.000 A 
ENDBRANCH   3  12
BRANCH   4  18
ATOM     18  O   UNL     1     -27.386  -0.013  12.171  1.00  0.00    -0.456 OA
BRANCH  18  19
ATOM     19  C   UNL     1     -26.375  -0.490  11.360  1.00  0.00    +0.127 A 
ATOM     20  C   UNL     1     -25.161   0.197  11.439  1.00  0.00    +0.047 A 
ATOM     21  C   UNL     1     -26.488  -1.607  10.529  1.00  0.00    +0.047 A 
ATOM     22  C   UNL     1     -24.071  -0.212  10.671  1.00  0.00    +0.004 A 
ATOM     23  C   UNL     1     -25.395  -2.016   9.761  1.00  0.00    +0.004 A 
ATOM     24  C   UNL     1     -24.189  -1.318   9.831  1.00  0.00    +0.000 A 
ENDBRANCH  18  19
ENDBRANCH   4  18
TORSDOF 3
ENDMDL
MODEL 7
REMARK VINA RESULT:    -7.527      6.023     10.130
REMARK INTER + INTRA:          -9.482
REMARK INTER:                  -8.592
REMARK INTRA:                  -0.889
REMARK UNBOUND:                -0.634
REMARK SMILES Cc1nc2ccccc2c(Oc2ccccc2)c1-c1ccccc1
REMARK SMILES IDX 1 1 2 2 18 3 10 4 9 5 8 6 7 7 6 8 5 9 4 10 3 11 19 12 20 13
REMARK SMILES IDX 24 14 21 15 23 16 22 17 11 18 12 19 13 20 17 21 14 22 16 23
REMARK SMILES IDX 15 24
REMARK H PARENT
ROOT
ATOM      1  C   UNL     1     -27.800   6.100   8.803  1.00  0.00    +0.067 C 
ATOM      2  C   UNL     1     -29.195   6.449   8.364  1.00  0.00    +0.050 A 
ATOM      3  C   UNL     1     -29.445   7.510   7.486  1.00  0.00    +0.046 A 
ATOM      4  C   UNL     1     -30.794   7.730   7.151  1.00  0.00    +0.146 A 
ATOM      5  C   UNL     1     -31.826   6.894   7.631  1.00  0.00    +0.044 A 
ATOM      6  C   UNL     1     -33.189   7.047   7.285  1.00  0.00    +0.014 A 
ATOM      7  C   UNL     1     -34.160   6.196   7.805  1.00  0.00    +0.001 A 
ATOM      8  C   UNL     1     -33.783   5.183   8.675  1.00  0.00    +0.002 A 
ATOM      9  C   UNL     1     -32.436   5.029   9.017  1.00  0.00    +0.029 A 
ATOM     10  C   UNL     1     -31.449   5.864   8.509  1.00  0.00    +0.074 A 
ATOM     11  N   UNL     1     -30.175   5.655   8.873  1.00  0.00    -0.252 NA
ENDROOT
BRANCH   3  12
ATOM     12  C   UNL     1     -28.361   8.327   6.920  1.00  0.00    -0.013 A 
ATOM     13  C   UNL     1     -27.927   8.122   5.601  1.00  0.00    +0.009 A 
ATOM     14  C   UNL     1     -27.742   9.332   7.680  1.00  0.00    +0.009 A 
ATOM     15  C   UNL     1     -26.901   8.898   5.059  1.00  0.00    +0.001 A 
ATOM     16  C   UNL     1     -26.717  10.110   7.136  1.00  0.00    +0.001 A 
ATOM     17  C   UNL     1     -26.296   9.891   5.827  1.00  0.00    +0.000 A 
ENDBRANCH   3  12
BRANCH   4  18
ATOM     18  O   UNL     1     -31.132   8.742   6.270  1.00  0.00    -0.456 OA
BRANCH  18  19
ATOM     19  C   UNL     1     -30.872  10.038   6.670  1.00  0.00    +0.127 A 
ATOM     20  C   UNL     1     -31.393  10.404   7.913  1.00  0.00    +0.047 A 
ATOM     21  C   UNL     1     -30.108  10.953   5.941  1.00  0.00    +0.047 A 
ATOM     22  C   UNL     1     -31.176  11.686   8.416  1.00  0.00    +0.004 A 
ATOM     23  C   UNL     1     -29.890  12.236   6.446  1.00  0.00    +0.004 A 
ATOM     24  C   UNL     1     -30.425  12.604   7.681  1.00  0.00    +0.000 A 
ENDBRANCH  18  19
ENDBRANCH   4  18
TORSDOF 3
ENDMDL
