REMARK SMILES CN1c2ccccc2S(=O)c2ccccc21
REMARK SMILES IDX 1 1 2 2 3 3 8 4 7 5 6 6 5 7 4 8 9 9 10 10 11 11 16 12 15 13
REMARK SMILES IDX 14 14 13 15 12 16
REMARK H PARENT
ROOT
ATOM      1  C   UNL     1      -0.205   2.510  -0.026  1.00  0.00    +0.150 C 
ATOM      2  N   UNL     1      -0.089   1.069   0.197  1.00  0.00    -0.343 N 
ATOM      3  C   UNL     1       1.200   0.485   0.131  1.00  0.00    +0.058 A 
ATOM      4  C   UNL     1       1.413  -0.820   0.619  1.00  0.00    +0.067 A 
ATOM      5  C   UNL     1       2.671  -1.436   0.503  1.00  0.00    +0.020 A 
ATOM      6  C   UNL     1       3.735  -0.769  -0.096  1.00  0.00    +0.001 A 
ATOM      7  C   UNL     1       3.548   0.521  -0.576  1.00  0.00    +0.002 A 
ATOM      8  C   UNL     1       2.297   1.138  -0.465  1.00  0.00    +0.027 A 
ATOM      9  S   UNL     1       0.127  -1.685   1.534  1.00  0.00    +0.089 S 
ATOM     10  O   UNL     1       0.248  -3.137   1.167  1.00  0.00    -0.249 OA
ATOM     11  C   UNL     1      -1.270  -1.039   0.599  1.00  0.00    +0.067 A 
ATOM     12  C   UNL     1      -1.265   0.283   0.113  1.00  0.00    +0.058 A 
ATOM     13  C   UNL     1      -2.445   0.750  -0.499  1.00  0.00    +0.027 A 
ATOM     14  C   UNL     1      -3.577  -0.062  -0.628  1.00  0.00    +0.002 A 
ATOM     15  C   UNL     1      -3.558  -1.365  -0.149  1.00  0.00    +0.001 A 
ATOM     16  C   UNL     1      -2.409  -1.851   0.466  1.00  0.00    +0.020 A 
ENDROOT
TORSDOF 0
