REMARK SMILES CCOC(=O)c1cc(Cl)nc2ccc(OC)cc12
REMARK SMILES IDX 4 1 5 2 3 3 2 4 1 5 6 6 18 7 7 8 17 9 11 10 8 11 14 12 12 13
REMARK SMILES IDX 10 14 13 15 9 16 15 17 16 18
REMARK H PARENT
ROOT
ATOM      1  C   UNL     1      -1.865   0.196   0.672  1.00  0.00    +0.338 C 
ATOM      2  O   UNL     1      -1.634   1.237   1.260  1.00  0.00    -0.246 OA
ENDROOT
BRANCH   1   3
ATOM      3  O   UNL     1      -2.991  -0.116  -0.017  1.00  0.00    -0.462 OA
BRANCH   3   4
ATOM      4  C   UNL     1      -3.999   0.905  -0.051  1.00  0.00    +0.230 C 
ATOM      5  C   UNL     1      -3.734   1.863  -1.197  1.00  0.00    +0.049 C 
ENDBRANCH   3   4
ENDBRANCH   1   3
BRANCH   1   6
ATOM      6  C   UNL     1      -0.925  -0.944   0.581  1.00  0.00    +0.072 A 
ATOM      7  C   UNL     1       0.449  -0.749   0.291  1.00  0.00    +0.018 A 
ATOM      8  C   UNL     1      -1.432  -2.222   0.818  1.00  0.00    +0.057 A 
ATOM      9  C   UNL     1       1.062   0.503   0.021  1.00  0.00    +0.057 A 
ATOM     10  C   UNL     1       1.248  -1.908   0.257  1.00  0.00    +0.073 A 
ATOM     11  C   UNL     1      -0.544  -3.267   0.754  1.00  0.00    +0.130 A 
ATOM     12  C   UNL     1       2.425   0.609  -0.265  1.00  0.00    +0.119 A 
ATOM     13  C   UNL     1       2.600  -1.783  -0.028  1.00  0.00    +0.033 A 
ATOM     14  N   UNL     1       0.766  -3.139   0.483  1.00  0.00    -0.236 NA
ATOM     15  C   UNL     1       3.196  -0.544  -0.288  1.00  0.00    +0.048 A 
ATOM     16 Cl   UNL     1      -1.061  -4.879   1.030  1.00  0.00    -0.062 Cl
BRANCH  12  17
ATOM     17  O   UNL     1       2.865   1.879  -0.505  1.00  0.00    -0.497 OA
ATOM     18  C   UNL     1       4.254   2.043  -0.766  1.00  0.00    +0.278 C 
ENDBRANCH  12  17
ENDBRANCH   1   6
TORSDOF 4
