MODEL 1
REMARK VINA RESULT:    -8.838      0.000      0.000
REMARK INTER + INTRA:         -12.089
REMARK INTER:                 -11.422
REMARK INTRA:                  -0.667
REMARK UNBOUND:                -0.667
REMARK SMILES O=C(Nc1ccccc1C(=O)O)Nc1ccccc1C(=O)O
REMARK SMILES IDX 3 1 2 2 1 3 13 4 4 7 9 8 8 9 5 10 7 11 6 12 10 13 11 14
REMARK SMILES IDX 12 15 14 17 19 18 15 19 18 20 16 21 17 22 20 23 21 24 22 25
REMARK H PARENT 3 5 13 6 12 16 22 26
ROOT
ATOM      1  N   UNL     1     -34.446   6.613   7.764  1.00  0.00    -0.307 N 
ATOM      2  C   UNL     1     -34.633   5.428   8.458  1.00  0.00    +0.323 C 
ATOM      3  O   UNL     1     -33.773   4.576   8.631  1.00  0.00    -0.248 OA
ATOM      4  N   UNL     1     -35.935   5.348   8.926  1.00  0.00    -0.307 N 
ATOM      5  H   UNL     1     -35.290   7.151   7.571  1.00  0.00    +0.171 HD
ATOM      6  H   UNL     1     -36.491   6.196   8.837  1.00  0.00    +0.171 HD
ENDROOT
BRANCH   1   7
ATOM      7  C   UNL     1     -33.260   7.121   7.174  1.00  0.00    +0.057 A 
ATOM      8  C   UNL     1     -33.018   6.911   5.796  1.00  0.00    +0.083 A 
ATOM      9  C   UNL     1     -31.849   7.418   5.199  1.00  0.00    +0.018 A 
ATOM     10  C   UNL     1     -32.314   7.846   7.911  1.00  0.00    +0.027 A 
ATOM     11  C   UNL     1     -30.920   8.131   5.954  1.00  0.00    +0.001 A 
ATOM     12  C   UNL     1     -31.154   8.345   7.307  1.00  0.00    +0.002 A 
BRANCH   8  13
ATOM     13  C   UNL     1     -33.995   6.153   4.966  1.00  0.00    +0.337 C 
ATOM     14  O   UNL     1     -33.987   4.947   4.787  1.00  0.00    -0.246 OA
BRANCH  13  15
ATOM     15  O   UNL     1     -34.935   6.928   4.397  1.00  0.00    -0.478 OA
ATOM     16  H   UNL     1     -35.635   7.001   5.080  1.00  0.00    +0.297 HD
ENDBRANCH  13  15
ENDBRANCH   8  13
ENDBRANCH   1   7
BRANCH   4  17
ATOM     17  C   UNL     1     -36.563   4.287   9.628  1.00  0.00    +0.057 A 
ATOM     18  C   UNL     1     -37.726   4.545  10.393  1.00  0.00    +0.083 A 
ATOM     19  C   UNL     1     -36.079   2.973   9.581  1.00  0.00    +0.027 A 
ATOM     20  C   UNL     1     -38.362   3.499  11.087  1.00  0.00    +0.018 A 
ATOM     21  C   UNL     1     -36.719   1.941  10.276  1.00  0.00    +0.002 A 
ATOM     22  C   UNL     1     -37.858   2.203  11.028  1.00  0.00    +0.001 A 
BRANCH  18  23
ATOM     23  C   UNL     1     -38.286   5.923  10.471  1.00  0.00    +0.337 C 
ATOM     24  O   UNL     1     -37.644   6.937  10.691  1.00  0.00    -0.246 OA
BRANCH  23  25
ATOM     25  O   UNL     1     -39.615   5.977  10.272  1.00  0.00    -0.478 OA
ATOM     26  H   UNL     1     -39.923   6.675  10.888  1.00  0.00    +0.297 HD
ENDBRANCH  23  25
ENDBRANCH  18  23
ENDBRANCH   4  17
TORSDOF 6
ENDMDL
MODEL 2
REMARK VINA RESULT:    -8.823      1.569      7.198
REMARK INTER + INTRA:         -12.069
REMARK INTER:                 -11.153
REMARK INTRA:                  -0.916
REMARK UNBOUND:                -0.667
REMARK SMILES O=C(Nc1ccccc1C(=O)O)Nc1ccccc1C(=O)O
REMARK SMILES IDX 3 1 2 2 1 3 13 4 4 7 9 8 8 9 5 10 7 11 6 12 10 13 11 14
REMARK SMILES IDX 12 15 14 17 19 18 15 19 18 20 16 21 17 22 20 23 21 24 22 25
REMARK H PARENT 3 5 13 6 12 16 22 26
ROOT
ATOM      1  N   UNL     1     -35.596   4.272   8.648  1.00  0.00    -0.307 N 
ATOM      2  C   UNL     1     -34.995   5.482   8.341  1.00  0.00    +0.323 C 
ATOM      3  O   UNL     1     -35.484   6.582   8.560  1.00  0.00    -0.248 OA
ATOM      4  N   UNL     1     -33.761   5.266   7.748  1.00  0.00    -0.307 N 
ATOM      5  H   UNL     1     -35.142   3.443   8.270  1.00  0.00    +0.171 HD
ATOM      6  H   UNL     1     -33.421   4.306   7.769  1.00  0.00    +0.171 HD
ENDROOT
BRANCH   1   7
ATOM      7  C   UNL     1     -36.828   4.034   9.312  1.00  0.00    +0.057 A 
ATOM      8  C   UNL     1     -36.895   3.060  10.335  1.00  0.00    +0.083 A 
ATOM      9  C   UNL     1     -38.110   2.821  11.006  1.00  0.00    +0.018 A 
ATOM     10  C   UNL     1     -37.992   4.749   8.999  1.00  0.00    +0.027 A 
ATOM     11  C   UNL     1     -39.255   3.540  10.672  1.00  0.00    +0.001 A 
ATOM     12  C   UNL     1     -39.194   4.503   9.671  1.00  0.00    +0.002 A 
BRANCH   8  13
ATOM     13  C   UNL     1     -35.685   2.277  10.711  1.00  0.00    +0.337 C 
ATOM     14  O   UNL     1     -34.630   2.747  11.099  1.00  0.00    -0.246 OA
BRANCH  13  15
ATOM     15  O   UNL     1     -35.844   0.947  10.587  1.00  0.00    -0.478 OA
ATOM     16  H   UNL     1     -35.068   0.566  11.050  1.00  0.00    +0.297 HD
ENDBRANCH  13  15
ENDBRANCH   8  13
ENDBRANCH   1   7
BRANCH   4  17
ATOM     17  C   UNL     1     -32.847   6.218   7.227  1.00  0.00    +0.057 A 
ATOM     18  C   UNL     1     -32.916   6.580   5.860  1.00  0.00    +0.083 A 
ATOM     19  C   UNL     1     -31.875   6.833   8.027  1.00  0.00    +0.027 A 
ATOM     20  C   UNL     1     -32.020   7.528   5.334  1.00  0.00    +0.018 A 
ATOM     21  C   UNL     1     -30.988   7.774   7.493  1.00  0.00    +0.002 A 
ATOM     22  C   UNL     1     -31.059   8.121   6.149  1.00  0.00    +0.001 A 
BRANCH  18  23
ATOM     23  C   UNL     1     -33.935   5.960   4.968  1.00  0.00    +0.337 C 
ATOM     24  O   UNL     1     -34.021   4.772   4.708  1.00  0.00    -0.246 OA
BRANCH  23  25
ATOM     25  O   UNL     1     -34.799   6.846   4.439  1.00  0.00    -0.478 OA
ATOM     26  H   UNL     1     -35.569   6.824   5.045  1.00  0.00    +0.297 HD
ENDBRANCH  23  25
ENDBRANCH  18  23
ENDBRANCH   4  17
TORSDOF 6
ENDMDL
MODEL 3
REMARK VINA RESULT:    -8.822      1.573      2.415
REMARK INTER + INTRA:         -12.067
REMARK INTER:                 -11.214
REMARK INTRA:                  -0.853
REMARK UNBOUND:                -0.667
REMARK SMILES O=C(Nc1ccccc1C(=O)O)Nc1ccccc1C(=O)O
REMARK SMILES IDX 3 1 2 2 1 3 13 4 4 7 9 8 8 9 5 10 7 11 6 12 10 13 11 14
REMARK SMILES IDX 12 15 14 17 19 18 15 19 18 20 16 21 17 22 20 23 21 24 22 25
REMARK H PARENT 3 5 13 6 12 16 22 26
ROOT
ATOM      1  N   UNL     1     -33.696   5.291   7.804  1.00  0.00    -0.307 N 
ATOM      2  C   UNL     1     -34.958   5.497   8.338  1.00  0.00    +0.323 C 
ATOM      3  O   UNL     1     -35.490   6.591   8.472  1.00  0.00    -0.248 OA
ATOM      4  N   UNL     1     -35.529   4.287   8.698  1.00  0.00    -0.307 N 
ATOM      5  H   UNL     1     -33.325   4.346   7.896  1.00  0.00    +0.171 HD
ATOM      6  H   UNL     1     -35.034   3.453   8.388  1.00  0.00    +0.171 HD
ENDROOT
BRANCH   1   7
ATOM      7  C   UNL     1     -32.794   6.241   7.258  1.00  0.00    +0.057 A 
ATOM      8  C   UNL     1     -32.894   6.596   5.892  1.00  0.00    +0.083 A 
ATOM      9  C   UNL     1     -32.010   7.543   5.342  1.00  0.00    +0.018 A 
ATOM     10  C   UNL     1     -31.807   6.861   8.034  1.00  0.00    +0.027 A 
ATOM     11  C   UNL     1     -31.032   8.141   6.133  1.00  0.00    +0.001 A 
ATOM     12  C   UNL     1     -30.933   7.801   7.477  1.00  0.00    +0.002 A 
BRANCH   8  13
ATOM     13  C   UNL     1     -33.931   5.971   5.024  1.00  0.00    +0.337 C 
ATOM     14  O   UNL     1     -34.002   4.786   4.747  1.00  0.00    -0.246 OA
BRANCH  13  15
ATOM     15  O   UNL     1     -34.829   6.848   4.541  1.00  0.00    -0.478 OA
ATOM     16  H   UNL     1     -34.881   6.640   3.585  1.00  0.00    +0.297 HD
ENDBRANCH  13  15
ENDBRANCH   8  13
ENDBRANCH   1   7
BRANCH   4  17
ATOM     17  C   UNL     1     -36.776   4.047   9.331  1.00  0.00    +0.057 A 
ATOM     18  C   UNL     1     -36.870   3.059  10.340  1.00  0.00    +0.083 A 
ATOM     19  C   UNL     1     -37.930   4.770   9.003  1.00  0.00    +0.027 A 
ATOM     20  C   UNL     1     -38.099   2.817  10.981  1.00  0.00    +0.018 A 
ATOM     21  C   UNL     1     -39.148   4.521   9.645  1.00  0.00    +0.002 A 
ATOM     22  C   UNL     1     -39.233   3.545  10.632  1.00  0.00    +0.001 A 
BRANCH  18  23
ATOM     23  C   UNL     1     -35.671   2.266  10.732  1.00  0.00    +0.337 C 
ATOM     24  O   UNL     1     -34.607   2.729  11.108  1.00  0.00    -0.246 OA
BRANCH  23  25
ATOM     25  O   UNL     1     -35.850   0.936  10.638  1.00  0.00    -0.478 OA
ATOM     26  H   UNL     1     -35.715   0.608  11.552  1.00  0.00    +0.297 HD
ENDBRANCH  23  25
ENDBRANCH  18  23
ENDBRANCH   4  17
TORSDOF 6
ENDMDL
MODEL 4
REMARK VINA RESULT:    -8.514      2.878      3.984
REMARK INTER + INTRA:         -11.670
REMARK INTER:                 -11.169
REMARK INTRA:                  -0.500
REMARK UNBOUND:                -0.667
REMARK SMILES O=C(Nc1ccccc1C(=O)O)Nc1ccccc1C(=O)O
REMARK SMILES IDX 3 1 2 2 1 3 13 4 4 7 9 8 8 9 5 10 7 11 6 12 10 13 11 14
REMARK SMILES IDX 12 15 14 17 19 18 15 19 18 20 16 21 17 22 20 23 21 24 22 25
REMARK H PARENT 3 5 13 6 12 16 22 26
ROOT
ATOM      1  N   UNL     1     -31.214   7.597   7.546  1.00  0.00    -0.307 N 
ATOM      2  C   UNL     1     -31.411   6.550   8.431  1.00  0.00    +0.323 C 
ATOM      3  O   UNL     1     -30.556   6.096   9.179  1.00  0.00    -0.248 OA
ATOM      4  N   UNL     1     -32.716   6.091   8.348  1.00  0.00    -0.307 N 
ATOM      5  H   UNL     1     -31.969   7.764   6.882  1.00  0.00    +0.171 HD
ATOM      6  H   UNL     1     -33.352   6.663   7.794  1.00  0.00    +0.171 HD
ENDROOT
BRANCH   1   7
ATOM      7  C   UNL     1     -30.053   8.390   7.349  1.00  0.00    +0.057 A 
ATOM      8  C   UNL     1     -30.178   9.793   7.218  1.00  0.00    +0.083 A 
ATOM      9  C   UNL     1     -29.033  10.590   7.031  1.00  0.00    +0.018 A 
ATOM     10  C   UNL     1     -28.770   7.830   7.296  1.00  0.00    +0.027 A 
ATOM     11  C   UNL     1     -27.769  10.009   6.976  1.00  0.00    +0.001 A 
ATOM     12  C   UNL     1     -27.638   8.632   7.109  1.00  0.00    +0.002 A 
BRANCH   8  13
ATOM     13  C   UNL     1     -31.519  10.439   7.274  1.00  0.00    +0.337 C 
ATOM     14  O   UNL     1     -32.362  10.250   8.134  1.00  0.00    -0.246 OA
BRANCH  13  15
ATOM     15  O   UNL     1     -31.750  11.289   6.257  1.00  0.00    -0.478 OA
ATOM     16  H   UNL     1     -32.665  11.606   6.409  1.00  0.00    +0.297 HD
ENDBRANCH  13  15
ENDBRANCH   8  13
ENDBRANCH   1   7
BRANCH   4  17
ATOM     17  C   UNL     1     -33.321   5.004   9.029  1.00  0.00    +0.057 A 
ATOM     18  C   UNL     1     -34.720   5.009   9.252  1.00  0.00    +0.083 A 
ATOM     19  C   UNL     1     -32.582   3.904   9.483  1.00  0.00    +0.027 A 
ATOM     20  C   UNL     1     -35.332   3.932   9.920  1.00  0.00    +0.018 A 
ATOM     21  C   UNL     1     -33.201   2.839  10.146  1.00  0.00    +0.002 A 
ATOM     22  C   UNL     1     -34.573   2.853  10.366  1.00  0.00    +0.001 A 
BRANCH  18  23
ATOM     23  C   UNL     1     -35.553   6.151   8.785  1.00  0.00    +0.337 C 
ATOM     24  O   UNL     1     -35.528   6.635   7.666  1.00  0.00    -0.246 OA
BRANCH  23  25
ATOM     25  O   UNL     1     -36.378   6.638   9.729  1.00  0.00    -0.478 OA
ATOM     26  H   UNL     1     -37.179   6.075   9.664  1.00  0.00    +0.297 HD
ENDBRANCH  23  25
ENDBRANCH  18  23
ENDBRANCH   4  17
TORSDOF 6
ENDMDL
MODEL 5
REMARK VINA RESULT:    -8.409      7.630      9.628
REMARK INTER + INTRA:         -11.534
REMARK INTER:                 -10.804
REMARK INTRA:                  -0.730
REMARK UNBOUND:                -0.667
REMARK SMILES O=C(Nc1ccccc1C(=O)O)Nc1ccccc1C(=O)O
REMARK SMILES IDX 3 1 2 2 1 3 13 4 4 7 9 8 8 9 5 10 7 11 6 12 10 13 11 14
REMARK SMILES IDX 12 15 14 17 19 18 15 19 18 20 16 21 17 22 20 23 21 24 22 25
REMARK H PARENT 3 5 13 6 12 16 22 26
ROOT
ATOM      1  N   UNL     1     -26.873   6.038   8.943  1.00  0.00    -0.307 N 
ATOM      2  C   UNL     1     -27.380   4.788   9.256  1.00  0.00    +0.323 C 
ATOM      3  O   UNL     1     -28.421   4.323   8.810  1.00  0.00    -0.248 OA
ATOM      4  N   UNL     1     -26.539   4.139  10.146  1.00  0.00    -0.307 N 
ATOM      5  H   UNL     1     -26.082   6.349   9.505  1.00  0.00    +0.171 HD
ATOM      6  H   UNL     1     -25.638   4.584  10.309  1.00  0.00    +0.171 HD
ENDROOT
BRANCH   1   7
ATOM      7  C   UNL     1     -27.380   7.002   8.033  1.00  0.00    +0.057 A 
ATOM      8  C   UNL     1     -26.535   7.527   7.027  1.00  0.00    +0.083 A 
ATOM      9  C   UNL     1     -27.030   8.478   6.114  1.00  0.00    +0.018 A 
ATOM     10  C   UNL     1     -28.708   7.447   8.083  1.00  0.00    +0.027 A 
ATOM     11  C   UNL     1     -28.352   8.909   6.189  1.00  0.00    +0.001 A 
ATOM     12  C   UNL     1     -29.189   8.392   7.171  1.00  0.00    +0.002 A 
BRANCH   8  13
ATOM     13  C   UNL     1     -25.117   7.084   6.926  1.00  0.00    +0.337 C 
ATOM     14  O   UNL     1     -24.736   5.926   6.916  1.00  0.00    -0.246 OA
BRANCH  13  15
ATOM     15  O   UNL     1     -24.239   8.099   6.842  1.00  0.00    -0.478 OA
ATOM     16  H   UNL     1     -24.538   8.614   6.062  1.00  0.00    +0.297 HD
ENDBRANCH  13  15
ENDBRANCH   8  13
ENDBRANCH   1   7
BRANCH   4  17
ATOM     17  C   UNL     1     -26.708   2.874  10.767  1.00  0.00    +0.057 A 
ATOM     18  C   UNL     1     -25.595   2.010  10.907  1.00  0.00    +0.083 A 
ATOM     19  C   UNL     1     -27.945   2.448  11.267  1.00  0.00    +0.027 A 
ATOM     20  C   UNL     1     -25.748   0.757  11.528  1.00  0.00    +0.018 A 
ATOM     21  C   UNL     1     -28.086   1.200  11.882  1.00  0.00    +0.002 A 
ATOM     22  C   UNL     1     -26.990   0.354  12.011  1.00  0.00    +0.001 A 
BRANCH  18  23
ATOM     23  C   UNL     1     -24.255   2.417  10.399  1.00  0.00    +0.337 C 
ATOM     24  O   UNL     1     -23.640   1.865   9.502  1.00  0.00    -0.246 OA
BRANCH  23  25
ATOM     25  O   UNL     1     -23.744   3.490  11.028  1.00  0.00    -0.478 OA
ATOM     26  H   UNL     1     -24.283   3.573  11.842  1.00  0.00    +0.297 HD
ENDBRANCH  23  25
ENDBRANCH  18  23
ENDBRANCH   4  17
TORSDOF 6
ENDMDL
MODEL 6
REMARK VINA RESULT:    -8.390      8.239      9.796
REMARK INTER + INTRA:         -11.509
REMARK INTER:                 -10.163
REMARK INTRA:                  -1.345
REMARK UNBOUND:                -0.667
REMARK SMILES O=C(Nc1ccccc1C(=O)O)Nc1ccccc1C(=O)O
REMARK SMILES IDX 3 1 2 2 1 3 13 4 4 7 9 8 8 9 5 10 7 11 6 12 10 13 11 14
REMARK SMILES IDX 12 15 14 17 19 18 15 19 18 20 16 21 17 22 20 23 21 24 22 25
REMARK H PARENT 3 5 13 6 12 16 22 26
ROOT
ATOM      1  N   UNL     1     -27.302   1.443   9.621  1.00  0.00    -0.307 N 
ATOM      2  C   UNL     1     -28.331   1.090  10.478  1.00  0.00    +0.323 C 
ATOM      3  O   UNL     1     -28.717   1.765  11.423  1.00  0.00    -0.248 OA
ATOM      4  N   UNL     1     -28.860  -0.137  10.113  1.00  0.00    -0.307 N 
ATOM      5  H   UNL     1     -26.992   0.716   8.978  1.00  0.00    +0.171 HD
ATOM      6  H   UNL     1     -28.542  -0.508   9.219  1.00  0.00    +0.171 HD
ENDROOT
BRANCH   1   7
ATOM      7  C   UNL     1     -26.532   2.636   9.597  1.00  0.00    +0.057 A 
ATOM      8  C   UNL     1     -25.351   2.721  10.370  1.00  0.00    +0.083 A 
ATOM      9  C   UNL     1     -24.575   3.895  10.348  1.00  0.00    +0.018 A 
ATOM     10  C   UNL     1     -26.895   3.740   8.814  1.00  0.00    +0.027 A 
ATOM     11  C   UNL     1     -24.960   4.982   9.566  1.00  0.00    +0.001 A 
ATOM     12  C   UNL     1     -26.117   4.902   8.800  1.00  0.00    +0.002 A 
BRANCH   8  13
ATOM     13  C   UNL     1     -24.917   1.573  11.215  1.00  0.00    +0.337 C 
ATOM     14  O   UNL     1     -23.938   0.876  11.015  1.00  0.00    -0.246 OA
BRANCH  13  15
ATOM     15  O   UNL     1     -25.723   1.346  12.268  1.00  0.00    -0.478 OA
ATOM     16  H   UNL     1     -26.519   1.888  12.086  1.00  0.00    +0.297 HD
ENDBRANCH  13  15
ENDBRANCH   8  13
ENDBRANCH   1   7
BRANCH   4  17
ATOM     17  C   UNL     1     -29.879  -0.891  10.750  1.00  0.00    +0.057 A 
ATOM     18  C   UNL     1     -29.566  -1.668  11.891  1.00  0.00    +0.083 A 
ATOM     19  C   UNL     1     -31.205  -0.884  10.297  1.00  0.00    +0.027 A 
ATOM     20  C   UNL     1     -30.569  -2.414  12.535  1.00  0.00    +0.018 A 
ATOM     21  C   UNL     1     -32.195  -1.630  10.945  1.00  0.00    +0.002 A 
ATOM     22  C   UNL     1     -31.879  -2.395  12.061  1.00  0.00    +0.001 A 
BRANCH  18  23
ATOM     23  C   UNL     1     -28.173  -1.705  12.418  1.00  0.00    +0.337 C 
ATOM     24  O   UNL     1     -27.366  -2.599  12.224  1.00  0.00    -0.246 OA
BRANCH  23  25
ATOM     25  O   UNL     1     -27.849  -0.631  13.160  1.00  0.00    -0.478 OA
ATOM     26  H   UNL     1     -26.914  -0.785  13.413  1.00  0.00    +0.297 HD
ENDBRANCH  23  25
ENDBRANCH  18  23
ENDBRANCH   4  17
TORSDOF 6
ENDMDL
MODEL 7
REMARK VINA RESULT:    -8.371      8.240     11.589
REMARK INTER + INTRA:         -11.484
REMARK INTER:                 -10.144
REMARK INTRA:                  -1.340
REMARK UNBOUND:                -0.667
REMARK SMILES O=C(Nc1ccccc1C(=O)O)Nc1ccccc1C(=O)O
REMARK SMILES IDX 3 1 2 2 1 3 13 4 4 7 9 8 8 9 5 10 7 11 6 12 10 13 11 14
REMARK SMILES IDX 12 15 14 17 19 18 15 19 18 20 16 21 17 22 20 23 21 24 22 25
REMARK H PARENT 3 5 13 6 12 16 22 26
ROOT
ATOM      1  N   UNL     1     -28.845  -0.130  10.102  1.00  0.00    -0.307 N 
ATOM      2  C   UNL     1     -28.328   1.098  10.480  1.00  0.00    +0.323 C 
ATOM      3  O   UNL     1     -28.712   1.754  11.439  1.00  0.00    -0.248 OA
ATOM      4  N   UNL     1     -27.314   1.477   9.615  1.00  0.00    -0.307 N 
ATOM      5  H   UNL     1     -28.533  -0.484   9.200  1.00  0.00    +0.171 HD
ATOM      6  H   UNL     1     -27.002   0.764   8.958  1.00  0.00    +0.171 HD
ENDROOT
BRANCH   1   7
ATOM      7  C   UNL     1     -29.848  -0.908  10.739  1.00  0.00    +0.057 A 
ATOM      8  C   UNL     1     -29.513  -1.691  11.869  1.00  0.00    +0.083 A 
ATOM      9  C   UNL     1     -30.501  -2.459  12.513  1.00  0.00    +0.018 A 
ATOM     10  C   UNL     1     -31.177  -0.916  10.295  1.00  0.00    +0.027 A 
ATOM     11  C   UNL     1     -31.814  -2.456  12.049  1.00  0.00    +0.001 A 
ATOM     12  C   UNL     1     -32.150  -1.684  10.943  1.00  0.00    +0.002 A 
BRANCH   8  13
ATOM     13  C   UNL     1     -28.117  -1.712  12.385  1.00  0.00    +0.337 C 
ATOM     14  O   UNL     1     -27.292  -2.582  12.164  1.00  0.00    -0.246 OA
BRANCH  13  15
ATOM     15  O   UNL     1     -27.810  -0.651  13.153  1.00  0.00    -0.478 OA
ATOM     16  H   UNL     1     -28.426   0.051  12.855  1.00  0.00    +0.297 HD
ENDBRANCH  13  15
ENDBRANCH   8  13
ENDBRANCH   1   7
BRANCH   4  17
ATOM     17  C   UNL     1     -26.561   2.680   9.601  1.00  0.00    +0.057 A 
ATOM     18  C   UNL     1     -25.362   2.764  10.349  1.00  0.00    +0.083 A 
ATOM     19  C   UNL     1     -26.955   3.797   8.853  1.00  0.00    +0.027 A 
ATOM     20  C   UNL     1     -24.603   3.948  10.337  1.00  0.00    +0.018 A 
ATOM     21  C   UNL     1     -26.193   4.970   8.848  1.00  0.00    +0.002 A 
ATOM     22  C   UNL     1     -25.020   5.047   9.589  1.00  0.00    +0.001 A 
BRANCH  18  23
ATOM     23  C   UNL     1     -24.894   1.603  11.157  1.00  0.00    +0.337 C 
ATOM     24  O   UNL     1     -23.902   0.933  10.926  1.00  0.00    -0.246 OA
BRANCH  23  25
ATOM     25  O   UNL     1     -25.682   1.328  12.212  1.00  0.00    -0.478 OA
ATOM     26  H   UNL     1     -25.054   1.093  12.927  1.00  0.00    +0.297 HD
ENDBRANCH  23  25
ENDBRANCH  18  23
ENDBRANCH   4  17
TORSDOF 6
ENDMDL
MODEL 8
REMARK VINA RESULT:    -8.365      2.011      7.161
REMARK INTER + INTRA:         -11.477
REMARK INTER:                 -10.675
REMARK INTRA:                  -0.802
REMARK UNBOUND:                -0.667
REMARK SMILES O=C(Nc1ccccc1C(=O)O)Nc1ccccc1C(=O)O
REMARK SMILES IDX 3 1 2 2 1 3 13 4 4 7 9 8 8 9 5 10 7 11 6 12 10 13 11 14
REMARK SMILES IDX 12 15 14 17 19 18 15 19 18 20 16 21 17 22 20 23 21 24 22 25
REMARK H PARENT 3 5 13 6 12 16 22 26
ROOT
ATOM      1  N   UNL     1     -35.708   4.176   8.508  1.00  0.00    -0.307 N 
ATOM      2  C   UNL     1     -35.142   5.396   8.174  1.00  0.00    +0.323 C 
ATOM      3  O   UNL     1     -35.635   6.487   8.424  1.00  0.00    -0.248 OA
ATOM      4  N   UNL     1     -33.939   5.202   7.515  1.00  0.00    -0.307 N 
ATOM      5  H   UNL     1     -35.262   3.355   8.102  1.00  0.00    +0.171 HD
ATOM      6  H   UNL     1     -33.584   4.247   7.513  1.00  0.00    +0.171 HD
ENDROOT
BRANCH   1   7
ATOM      7  C   UNL     1     -36.899   3.916   9.235  1.00  0.00    +0.057 A 
ATOM      8  C   UNL     1     -36.948   2.819  10.127  1.00  0.00    +0.083 A 
ATOM      9  C   UNL     1     -38.121   2.557  10.859  1.00  0.00    +0.018 A 
ATOM     10  C   UNL     1     -38.036   4.725   9.113  1.00  0.00    +0.027 A 
ATOM     11  C   UNL     1     -39.241   3.372  10.717  1.00  0.00    +0.001 A 
ATOM     12  C   UNL     1     -39.197   4.454   9.846  1.00  0.00    +0.002 A 
BRANCH   8  13
ATOM     13  C   UNL     1     -35.764   1.932  10.298  1.00  0.00    +0.337 C 
ATOM     14  O   UNL     1     -35.166   1.742  11.342  1.00  0.00    -0.246 OA
BRANCH  13  15
ATOM     15  O   UNL     1     -35.380   1.322   9.162  1.00  0.00    -0.478 OA
ATOM     16  H   UNL     1     -34.437   1.572   9.060  1.00  0.00    +0.297 HD
ENDBRANCH  13  15
ENDBRANCH   8  13
ENDBRANCH   1   7
BRANCH   4  17
ATOM     17  C   UNL     1     -33.068   6.170   6.951  1.00  0.00    +0.057 A 
ATOM     18  C   UNL     1     -31.871   6.513   7.625  1.00  0.00    +0.083 A 
ATOM     19  C   UNL     1     -33.343   6.797   5.728  1.00  0.00    +0.027 A 
ATOM     20  C   UNL     1     -30.997   7.465   7.071  1.00  0.00    +0.018 A 
ATOM     21  C   UNL     1     -32.467   7.743   5.187  1.00  0.00    +0.002 A 
ATOM     22  C   UNL     1     -31.296   8.078   5.857  1.00  0.00    +0.001 A 
BRANCH  18  23
ATOM     23  C   UNL     1     -31.528   5.871   8.924  1.00  0.00    +0.337 C 
ATOM     24  O   UNL     1     -30.554   5.168   9.132  1.00  0.00    -0.246 OA
BRANCH  23  25
ATOM     25  O   UNL     1     -32.412   6.132   9.904  1.00  0.00    -0.478 OA
ATOM     26  H   UNL     1     -32.092   5.604  10.666  1.00  0.00    +0.297 HD
ENDBRANCH  23  25
ENDBRANCH  18  23
ENDBRANCH   4  17
TORSDOF 6
ENDMDL
MODEL 9
REMARK VINA RESULT:    -8.296      3.794      8.579
REMARK INTER + INTRA:         -11.387
REMARK INTER:                 -10.833
REMARK INTRA:                  -0.554
REMARK UNBOUND:                -0.667
REMARK SMILES O=C(Nc1ccccc1C(=O)O)Nc1ccccc1C(=O)O
REMARK SMILES IDX 3 1 2 2 1 3 13 4 4 7 9 8 8 9 5 10 7 11 6 12 10 13 11 14
REMARK SMILES IDX 12 15 14 17 19 18 15 19 18 20 16 21 17 22 20 23 21 24 22 25
REMARK H PARENT 3 5 13 6 12 16 22 26
ROOT
ATOM      1  N   UNL     1     -31.181   6.823   7.656  1.00  0.00    -0.307 N 
ATOM      2  C   UNL     1     -31.126   8.197   7.491  1.00  0.00    +0.323 C 
ATOM      3  O   UNL     1     -32.027   8.973   7.780  1.00  0.00    -0.248 OA
ATOM      4  N   UNL     1     -29.905   8.567   6.950  1.00  0.00    -0.307 N 
ATOM      5  H   UNL     1     -30.421   6.295   7.230  1.00  0.00    +0.171 HD
ATOM      6  H   UNL     1     -29.201   7.832   6.903  1.00  0.00    +0.171 HD
ENDROOT
BRANCH   1   7
ATOM      7  C   UNL     1     -32.215   6.036   8.227  1.00  0.00    +0.057 A 
ATOM      8  C   UNL     1     -33.341   5.687   7.445  1.00  0.00    +0.083 A 
ATOM      9  C   UNL     1     -34.369   4.900   7.999  1.00  0.00    +0.018 A 
ATOM     10  C   UNL     1     -32.153   5.571   9.547  1.00  0.00    +0.027 A 
ATOM     11  C   UNL     1     -34.287   4.455   9.316  1.00  0.00    +0.001 A 
ATOM     12  C   UNL     1     -33.180   4.789  10.087  1.00  0.00    +0.002 A 
BRANCH   8  13
ATOM     13  C   UNL     1     -33.453   6.150   6.034  1.00  0.00    +0.337 C 
ATOM     14  O   UNL     1     -33.372   5.440   5.047  1.00  0.00    -0.246 OA
BRANCH  13  15
ATOM     15  O   UNL     1     -33.659   7.474   5.916  1.00  0.00    -0.478 OA
ATOM     16  H   UNL     1     -34.010   7.743   6.792  1.00  0.00    +0.297 HD
ENDBRANCH  13  15
ENDBRANCH   8  13
ENDBRANCH   1   7
BRANCH   4  17
ATOM     17  C   UNL     1     -29.457   9.857   6.567  1.00  0.00    +0.057 A 
ATOM     18  C   UNL     1     -28.115  10.037   6.153  1.00  0.00    +0.083 A 
ATOM     19  C   UNL     1     -30.305  10.972   6.567  1.00  0.00    +0.027 A 
ATOM     20  C   UNL     1     -27.660  11.311   5.764  1.00  0.00    +0.018 A 
ATOM     21  C   UNL     1     -29.843  12.234   6.178  1.00  0.00    +0.002 A 
ATOM     22  C   UNL     1     -28.523  12.404   5.778  1.00  0.00    +0.001 A 
BRANCH  18  23
ATOM     23  C   UNL     1     -27.172   8.884   6.128  1.00  0.00    +0.337 C 
ATOM     24  O   UNL     1     -26.633   8.431   5.133  1.00  0.00    -0.246 OA
BRANCH  23  25
ATOM     25  O   UNL     1     -26.945   8.348   7.341  1.00  0.00    -0.478 OA
ATOM     26  H   UNL     1     -27.529   8.856   7.943  1.00  0.00    +0.297 HD
ENDBRANCH  23  25
ENDBRANCH  18  23
ENDBRANCH   4  17
TORSDOF 6
ENDMDL
