REMARK SMILES CNNc1ncnc2c1cnn2-c1ccccc1
REMARK SMILES IDX 3 1 2 3 1 4 4 6 9 7 5 8 10 9 8 10 6 11 11 12 12 13 7 14
REMARK SMILES IDX 13 15 14 16 18 17 15 18 17 19 16 20
REMARK H PARENT 3 2 2 5
ROOT
ATOM      1  N   UNL     1       3.359  -0.463   0.955  1.00  0.00    -0.305 N 
ATOM      2  H   UNL     1       3.128  -0.971   1.806  1.00  0.00    +0.183 HD
ENDROOT
BRANCH   1   3
ATOM      3  N   UNL     1       4.578  -0.825   0.335  1.00  0.00    -0.239 NA
ATOM      4  C   UNL     1       5.653  -0.058   0.960  1.00  0.00    +0.127 C 
ATOM      5  H   UNL     1       4.527  -0.558  -0.658  1.00  0.00    +0.147 HD
ENDBRANCH   1   3
BRANCH   1   6
ATOM      6  C   UNL     1       2.245  -0.261   0.113  1.00  0.00    +0.154 A 
ATOM      7  C   UNL     1       0.926  -0.293   0.584  1.00  0.00    +0.083 A 
ATOM      8  N   UNL     1       2.441  -0.006  -1.209  1.00  0.00    -0.217 NA
ATOM      9  C   UNL     1       0.277  -0.490   1.810  1.00  0.00    +0.150 A 
ATOM     10  C   UNL     1      -0.098  -0.076  -0.327  1.00  0.00    +0.168 A 
ATOM     11  C   UNL     1       1.368   0.187  -1.994  1.00  0.00    +0.226 A 
ATOM     12  N   UNL     1      -1.049  -0.421   1.717  1.00  0.00    -0.174 NA
ATOM     13  N   UNL     1      -1.292  -0.163   0.393  1.00  0.00    -0.215 N 
ATOM     14  N   UNL     1       0.075   0.168  -1.643  1.00  0.00    -0.216 NA
BRANCH  13  15
ATOM     15  C   UNL     1      -2.640  -0.024  -0.061  1.00  0.00    +0.067 A 
ATOM     16  C   UNL     1      -3.691  -0.153   0.865  1.00  0.00    +0.028 A 
ATOM     17  C   UNL     1      -2.951   0.236  -1.402  1.00  0.00    +0.028 A 
ATOM     18  C   UNL     1      -5.020  -0.023   0.457  1.00  0.00    +0.002 A 
ATOM     19  C   UNL     1      -4.285   0.365  -1.805  1.00  0.00    +0.002 A 
ATOM     20  C   UNL     1      -5.317   0.236  -0.878  1.00  0.00    +0.000 A 
ENDBRANCH  13  15
ENDBRANCH   1   6
TORSDOF 3
