REMARK SMILES COc1ccc2ccccc2c1C=C(C)C(=O)O
REMARK SMILES IDX 13 1 14 2 15 3 12 4 3 5 4 6 5 7 11 8 6 9 10 10 7 11 9 12
REMARK SMILES IDX 8 13 2 14 1 15 16 16 17 17 18 18
REMARK H PARENT 18 19
ROOT
ATOM      1  C   UNL     1       1.387   0.436  -0.814  1.00  0.00    +0.023 C 
ATOM      2  C   UNL     1       2.419   0.027  -0.050  1.00  0.00    +0.035 C 
ATOM      3  C   UNL     1       3.837   0.109  -0.533  1.00  0.00    +0.052 C 
ENDROOT
BRANCH   1   4
ATOM      4  C   UNL     1      -0.052   0.368  -0.479  1.00  0.00    +0.025 A 
ATOM      5  C   UNL     1      -0.718   1.576  -0.166  1.00  0.00    +0.126 A 
ATOM      6  C   UNL     1      -2.073   1.549   0.164  1.00  0.00    +0.048 A 
ATOM      7  C   UNL     1      -2.766   0.339   0.191  1.00  0.00    +0.012 A 
ATOM      8  C   UNL     1      -0.758  -0.872  -0.475  1.00  0.00    -0.007 A 
ATOM      9  C   UNL     1      -2.131  -0.869  -0.125  1.00  0.00    -0.018 A 
ATOM     10  C   UNL     1      -0.176  -2.121  -0.808  1.00  0.00    +0.009 A 
ATOM     11  C   UNL     1      -2.857  -2.072  -0.101  1.00  0.00    +0.009 A 
ATOM     12  C   UNL     1      -0.910  -3.309  -0.780  1.00  0.00    +0.001 A 
ATOM     13  C   UNL     1      -2.251  -3.284  -0.423  1.00  0.00    +0.001 A 
BRANCH   5  14
ATOM     14  O   UNL     1       0.032   2.726  -0.235  1.00  0.00    -0.496 OA
ATOM     15  C   UNL     1      -0.513   3.892   0.368  1.00  0.00    +0.278 C 
ENDBRANCH   5  14
ENDBRANCH   1   4
BRANCH   2  16
ATOM     16  C   UNL     1       2.277  -0.573   1.295  1.00  0.00    +0.331 C 
ATOM     17  O   UNL     1       2.982  -1.464   1.737  1.00  0.00    -0.247 OA
BRANCH  16  18
ATOM     18  O   UNL     1       1.339   0.013   2.052  1.00  0.00    -0.478 OA
ATOM     19  H   UNL     1       1.364  -0.489   2.890  1.00  0.00    +0.297 HD
ENDBRANCH  16  18
ENDBRANCH   2  16
TORSDOF 4
