REMARK SMILES CCSc1nc(C)nc2c1cnn2-c1ccccc1
REMARK SMILES IDX 3 1 2 2 1 3 4 4 10 5 5 6 11 7 9 8 6 9 12 10 13 11 8 12 7 13
REMARK SMILES IDX 14 14 15 15 19 16 16 17 18 18 17 19
REMARK H PARENT
ROOT
ATOM      1  S   UNL     1       3.474  -1.465  -0.963  1.00  0.00    -0.106 SA
ENDROOT
BRANCH   1   2
ATOM      2  C   UNL     1       4.780  -0.881   0.169  1.00  0.00    +0.073 C 
ATOM      3  C   UNL     1       5.024   0.611   0.026  1.00  0.00    +0.016 C 
ENDBRANCH   1   2
BRANCH   1   4
ATOM      4  C   UNL     1       2.021  -0.859  -0.160  1.00  0.00    +0.111 A 
ATOM      5  C   UNL     1       0.830  -0.772  -0.873  1.00  0.00    +0.072 A 
ATOM      6  N   UNL     1       2.046  -0.500   1.141  1.00  0.00    -0.226 NA
ATOM      7  C   UNL     1       0.367  -1.031  -2.171  1.00  0.00    +0.149 A 
ATOM      8  C   UNL     1      -0.280  -0.303  -0.189  1.00  0.00    +0.167 A 
ATOM      9  C   UNL     1       0.909  -0.049   1.708  1.00  0.00    +0.129 A 
ATOM     10  N   UNL     1      -0.926  -0.757  -2.328  1.00  0.00    -0.174 NA
ATOM     11  N   UNL     1      -1.337  -0.305  -1.101  1.00  0.00    -0.215 N 
ATOM     12  N   UNL     1      -0.288   0.070   1.108  1.00  0.00    -0.213 NA
ATOM     13  C   UNL     1       0.978   0.314   3.160  1.00  0.00    +0.090 C 
BRANCH  11  14
ATOM     14  C   UNL     1      -2.701   0.083  -0.914  1.00  0.00    +0.067 A 
ATOM     15  C   UNL     1      -3.592  -0.009  -1.998  1.00  0.00    +0.028 A 
ATOM     16  C   UNL     1      -3.179   0.552   0.316  1.00  0.00    +0.028 A 
ATOM     17  C   UNL     1      -4.931   0.362  -1.851  1.00  0.00    +0.002 A 
ATOM     18  C   UNL     1      -4.521   0.922   0.456  1.00  0.00    +0.002 A 
ATOM     19  C   UNL     1      -5.395   0.827  -0.624  1.00  0.00    +0.000 A 
ENDBRANCH  11  14
ENDBRANCH   1   4
TORSDOF 3
