MODEL 1
REMARK VINA RESULT:    -8.327      0.000      0.000
REMARK INTER + INTRA:          -9.449
REMARK INTER:                  -9.057
REMARK INTRA:                  -0.392
REMARK UNBOUND:                -0.392
REMARK SMILES Cc1nc2ccccc2c(O)c1-c1ccccc1
REMARK SMILES IDX 1 1 2 2 12 3 10 4 9 5 8 6 7 7 6 8 5 9 4 10 3 11 13 12 14 13
REMARK SMILES IDX 18 14 15 15 17 16 16 17 11 18
REMARK H PARENT 11 19
ROOT
ATOM      1  C   UNL     1     -32.916   7.373   4.750  1.00  0.00    +0.067 C 
ATOM      2  C   UNL     1     -33.057   6.585   6.024  1.00  0.00    +0.050 A 
ATOM      3  C   UNL     1     -32.409   6.976   7.203  1.00  0.00    +0.045 A 
ATOM      4  C   UNL     1     -32.618   6.159   8.327  1.00  0.00    +0.134 A 
ATOM      5  C   UNL     1     -33.435   5.014   8.264  1.00  0.00    +0.043 A 
ATOM      6  C   UNL     1     -33.672   4.165   9.369  1.00  0.00    +0.014 A 
ATOM      7  C   UNL     1     -34.490   3.043   9.249  1.00  0.00    +0.001 A 
ATOM      8  C   UNL     1     -35.079   2.760   8.023  1.00  0.00    +0.002 A 
ATOM      9  C   UNL     1     -34.844   3.598   6.930  1.00  0.00    +0.029 A 
ATOM     10  C   UNL     1     -34.033   4.721   7.027  1.00  0.00    +0.074 A 
ATOM     11  N   UNL     1     -33.850   5.485   5.938  1.00  0.00    -0.252 NA
ENDROOT
BRANCH   3  12
ATOM     12  C   UNL     1     -31.560   8.173   7.262  1.00  0.00    -0.013 A 
ATOM     13  C   UNL     1     -30.187   8.090   6.985  1.00  0.00    +0.009 A 
ATOM     14  C   UNL     1     -32.111   9.426   7.571  1.00  0.00    +0.009 A 
ATOM     15  C   UNL     1     -29.383   9.231   7.021  1.00  0.00    +0.001 A 
ATOM     16  C   UNL     1     -31.307  10.567   7.607  1.00  0.00    +0.001 A 
ATOM     17  C   UNL     1     -29.944  10.469   7.332  1.00  0.00    +0.000 A 
ENDBRANCH   3  12
BRANCH   4  18
ATOM     18  O   UNL     1     -32.028   6.452   9.539  1.00  0.00    -0.507 OA
ATOM     19  H   UNL     1     -31.781   5.623   9.985  1.00  0.00    +0.293 HD
ENDBRANCH   4  18
TORSDOF 2
ENDMDL
MODEL 2
REMARK VINA RESULT:    -7.902      5.496      8.084
REMARK INTER + INTRA:          -8.987
REMARK INTER:                 -10.397
REMARK INTRA:                   1.410
REMARK UNBOUND:                -0.392
REMARK SMILES Cc1nc2ccccc2c(O)c1-c1ccccc1
REMARK SMILES IDX 1 1 2 2 12 3 10 4 9 5 8 6 7 7 6 8 5 9 4 10 3 11 13 12 14 13
REMARK SMILES IDX 18 14 15 15 17 16 16 17 11 18
REMARK H PARENT 11 19
ROOT
ATOM      1  C   UNL     1     -24.258   8.104   6.221  1.00  0.00    +0.067 C 
ATOM      2  C   UNL     1     -25.585   8.802   6.337  1.00  0.00    +0.050 A 
ATOM      3  C   UNL     1     -26.663   8.220   7.018  1.00  0.00    +0.045 A 
ATOM      4  C   UNL     1     -27.851   8.970   7.057  1.00  0.00    +0.134 A 
ATOM      5  C   UNL     1     -27.945  10.234   6.444  1.00  0.00    +0.043 A 
ATOM      6  C   UNL     1     -29.119  11.022   6.460  1.00  0.00    +0.014 A 
ATOM      7  C   UNL     1     -29.154  12.267   5.836  1.00  0.00    +0.001 A 
ATOM      8  C   UNL     1     -28.018  12.738   5.192  1.00  0.00    +0.002 A 
ATOM      9  C   UNL     1     -26.857  11.960   5.176  1.00  0.00    +0.029 A 
ATOM     10  C   UNL     1     -26.798  10.716   5.791  1.00  0.00    +0.074 A 
ATOM     11  N   UNL     1     -25.651  10.020   5.739  1.00  0.00    -0.252 NA
ENDROOT
BRANCH   3  12
ATOM     12  C   UNL     1     -26.558   6.901   7.655  1.00  0.00    -0.013 A 
ATOM     13  C   UNL     1     -25.304   6.342   7.940  1.00  0.00    +0.009 A 
ATOM     14  C   UNL     1     -27.712   6.187   8.015  1.00  0.00    +0.009 A 
ATOM     15  C   UNL     1     -25.204   5.097   8.564  1.00  0.00    +0.001 A 
ATOM     16  C   UNL     1     -27.612   4.942   8.639  1.00  0.00    +0.001 A 
ATOM     17  C   UNL     1     -26.359   4.398   8.914  1.00  0.00    +0.000 A 
ENDBRANCH   3  12
BRANCH   4  18
ATOM     18  O   UNL     1     -28.973   8.492   7.701  1.00  0.00    -0.507 OA
ATOM     19  H   UNL     1     -28.704   7.851   8.383  1.00  0.00    +0.293 HD
ENDBRANCH   4  18
TORSDOF 2
ENDMDL
MODEL 3
REMARK VINA RESULT:    -7.891      2.160      3.725
REMARK INTER + INTRA:          -8.975
REMARK INTER:                  -9.191
REMARK INTRA:                   0.216
REMARK UNBOUND:                -0.392
REMARK SMILES Cc1nc2ccccc2c(O)c1-c1ccccc1
REMARK SMILES IDX 1 1 2 2 12 3 10 4 9 5 8 6 7 7 6 8 5 9 4 10 3 11 13 12 14 13
REMARK SMILES IDX 18 14 15 15 17 16 16 17 11 18
REMARK H PARENT 11 19
ROOT
ATOM      1  C   UNL     1     -27.980   7.344   8.429  1.00  0.00    +0.067 C 
ATOM      2  C   UNL     1     -29.434   7.335   8.043  1.00  0.00    +0.050 A 
ATOM      3  C   UNL     1     -29.964   8.288   7.163  1.00  0.00    +0.045 A 
ATOM      4  C   UNL     1     -31.336   8.175   6.879  1.00  0.00    +0.134 A 
ATOM      5  C   UNL     1     -32.126   7.159   7.451  1.00  0.00    +0.043 A 
ATOM      6  C   UNL     1     -33.508   7.009   7.193  1.00  0.00    +0.014 A 
ATOM      7  C   UNL     1     -34.241   5.985   7.788  1.00  0.00    +0.001 A 
ATOM      8  C   UNL     1     -33.600   5.100   8.645  1.00  0.00    +0.002 A 
ATOM      9  C   UNL     1     -32.234   5.248   8.901  1.00  0.00    +0.029 A 
ATOM     10  C   UNL     1     -31.484   6.262   8.320  1.00  0.00    +0.074 A 
ATOM     11  N   UNL     1     -30.175   6.346   8.607  1.00  0.00    -0.252 NA
ENDROOT
BRANCH   3  12
ATOM     12  C   UNL     1     -29.135   9.344   6.569  1.00  0.00    -0.013 A 
ATOM     13  C   UNL     1     -29.455  10.696   6.757  1.00  0.00    +0.009 A 
ATOM     14  C   UNL     1     -27.989   9.020   5.825  1.00  0.00    +0.009 A 
ATOM     15  C   UNL     1     -28.655  11.701   6.209  1.00  0.00    +0.001 A 
ATOM     16  C   UNL     1     -27.189  10.024   5.277  1.00  0.00    +0.001 A 
ATOM     17  C   UNL     1     -27.521  11.363   5.470  1.00  0.00    +0.000 A 
ENDBRANCH   3  12
BRANCH   4  18
ATOM     18  O   UNL     1     -31.961   9.060   6.025  1.00  0.00    -0.507 OA
ATOM     19  H   UNL     1     -31.419   9.865   5.944  1.00  0.00    +0.293 HD
ENDBRANCH   4  18
TORSDOF 2
ENDMDL
MODEL 4
REMARK VINA RESULT:    -7.801      2.588      3.763
REMARK INTER + INTRA:          -8.877
REMARK INTER:                  -8.769
REMARK INTRA:                  -0.108
REMARK UNBOUND:                -0.392
REMARK SMILES Cc1nc2ccccc2c(O)c1-c1ccccc1
REMARK SMILES IDX 1 1 2 2 12 3 10 4 9 5 8 6 7 7 6 8 5 9 4 10 3 11 13 12 14 13
REMARK SMILES IDX 18 14 15 15 17 16 16 17 11 18
REMARK H PARENT 11 19
ROOT
ATOM      1  C   UNL     1     -32.299   3.888   9.024  1.00  0.00    +0.067 C 
ATOM      2  C   UNL     1     -33.723   4.371   9.018  1.00  0.00    +0.050 A 
ATOM      3  C   UNL     1     -34.117   5.486   8.268  1.00  0.00    +0.045 A 
ATOM      4  C   UNL     1     -35.475   5.840   8.345  1.00  0.00    +0.134 A 
ATOM      5  C   UNL     1     -36.383   5.108   9.134  1.00  0.00    +0.043 A 
ATOM      6  C   UNL     1     -37.756   5.428   9.240  1.00  0.00    +0.014 A 
ATOM      7  C   UNL     1     -38.609   4.668  10.037  1.00  0.00    +0.001 A 
ATOM      8  C   UNL     1     -38.099   3.581  10.736  1.00  0.00    +0.002 A 
ATOM      9  C   UNL     1     -36.742   3.265  10.632  1.00  0.00    +0.029 A 
ATOM     10  C   UNL     1     -35.873   4.008   9.843  1.00  0.00    +0.074 A 
ATOM     11  N   UNL     1     -34.580   3.649   9.787  1.00  0.00    -0.252 NA
ENDROOT
BRANCH   3  12
ATOM     12  C   UNL     1     -33.164   6.244   7.446  1.00  0.00    -0.013 A 
ATOM     13  C   UNL     1     -33.251   6.222   6.046  1.00  0.00    +0.009 A 
ATOM     14  C   UNL     1     -32.166   7.026   8.047  1.00  0.00    +0.009 A 
ATOM     15  C   UNL     1     -32.359   6.959   5.265  1.00  0.00    +0.001 A 
ATOM     16  C   UNL     1     -31.273   7.763   7.266  1.00  0.00    +0.001 A 
ATOM     17  C   UNL     1     -31.370   7.730   5.876  1.00  0.00    +0.000 A 
ENDBRANCH   3  12
BRANCH   4  18
ATOM     18  O   UNL     1     -35.969   6.921   7.645  1.00  0.00    -0.507 OA
ATOM     19  H   UNL     1     -35.689   6.857   6.715  1.00  0.00    +0.293 HD
ENDBRANCH   4  18
TORSDOF 2
ENDMDL
MODEL 5
REMARK VINA RESULT:    -7.796      4.704      7.901
REMARK INTER + INTRA:          -8.872
REMARK INTER:                 -10.137
REMARK INTRA:                   1.265
REMARK UNBOUND:                -0.392
REMARK SMILES Cc1nc2ccccc2c(O)c1-c1ccccc1
REMARK SMILES IDX 1 1 2 2 12 3 10 4 9 5 8 6 7 7 6 8 5 9 4 10 3 11 13 12 14 13
REMARK SMILES IDX 18 14 15 15 17 16 16 17 11 18
REMARK H PARENT 11 19
ROOT
ATOM      1  C   UNL     1     -29.826   7.733   7.688  1.00  0.00    +0.067 C 
ATOM      2  C   UNL     1     -28.891   8.768   7.124  1.00  0.00    +0.050 A 
ATOM      3  C   UNL     1     -27.516   8.528   7.004  1.00  0.00    +0.045 A 
ATOM      4  C   UNL     1     -26.747   9.573   6.463  1.00  0.00    +0.134 A 
ATOM      5  C   UNL     1     -27.333  10.790   6.066  1.00  0.00    +0.043 A 
ATOM      6  C   UNL     1     -26.599  11.866   5.518  1.00  0.00    +0.014 A 
ATOM      7  C   UNL     1     -27.232  13.048   5.142  1.00  0.00    +0.001 A 
ATOM      8  C   UNL     1     -28.605  13.167   5.310  1.00  0.00    +0.002 A 
ATOM      9  C   UNL     1     -29.332  12.104   5.852  1.00  0.00    +0.029 A 
ATOM     10  C   UNL     1     -28.722  10.916   6.234  1.00  0.00    +0.074 A 
ATOM     11  N   UNL     1     -29.480   9.934   6.748  1.00  0.00    -0.252 NA
ENDROOT
BRANCH   3  12
ATOM     12  C   UNL     1     -26.911   7.256   7.420  1.00  0.00    -0.013 A 
ATOM     13  C   UNL     1     -25.687   6.836   6.881  1.00  0.00    +0.009 A 
ATOM     14  C   UNL     1     -27.535   6.450   8.385  1.00  0.00    +0.009 A 
ATOM     15  C   UNL     1     -25.102   5.636   7.291  1.00  0.00    +0.001 A 
ATOM     16  C   UNL     1     -26.950   5.250   8.795  1.00  0.00    +0.001 A 
ATOM     17  C   UNL     1     -25.734   4.844   8.249  1.00  0.00    +0.000 A 
ENDBRANCH   3  12
BRANCH   4  18
ATOM     18  O   UNL     1     -25.384   9.442   6.301  1.00  0.00    -0.507 OA
ATOM     19  H   UNL     1     -25.145   9.682   5.388  1.00  0.00    +0.293 HD
ENDBRANCH   4  18
TORSDOF 2
ENDMDL
MODEL 6
REMARK VINA RESULT:    -7.782      1.626      5.801
REMARK INTER + INTRA:          -8.857
REMARK INTER:                  -8.465
REMARK INTRA:                  -0.391
REMARK UNBOUND:                -0.392
REMARK SMILES Cc1nc2ccccc2c(O)c1-c1ccccc1
REMARK SMILES IDX 1 1 2 2 12 3 10 4 9 5 8 6 7 7 6 8 5 9 4 10 3 11 13 12 14 13
REMARK SMILES IDX 18 14 15 15 17 16 16 17 11 18
REMARK H PARENT 11 19
ROOT
ATOM      1  C   UNL     1     -35.229   3.139   7.787  1.00  0.00    +0.067 C 
ATOM      2  C   UNL     1     -34.193   4.228   7.728  1.00  0.00    +0.050 A 
ATOM      3  C   UNL     1     -33.268   4.417   8.764  1.00  0.00    +0.045 A 
ATOM      4  C   UNL     1     -32.350   5.468   8.593  1.00  0.00    +0.134 A 
ATOM      5  C   UNL     1     -32.366   6.281   7.443  1.00  0.00    +0.043 A 
ATOM      6  C   UNL     1     -31.463   7.347   7.232  1.00  0.00    +0.014 A 
ATOM      7  C   UNL     1     -31.526   8.119   6.074  1.00  0.00    +0.001 A 
ATOM      8  C   UNL     1     -32.490   7.834   5.117  1.00  0.00    +0.002 A 
ATOM      9  C   UNL     1     -33.384   6.780   5.326  1.00  0.00    +0.029 A 
ATOM     10  C   UNL     1     -33.340   5.997   6.472  1.00  0.00    +0.074 A 
ATOM     11  N   UNL     1     -34.228   4.999   6.610  1.00  0.00    -0.252 NA
ENDROOT
BRANCH   3  12
ATOM     12  C   UNL     1     -33.256   3.564   9.959  1.00  0.00    -0.013 A 
ATOM     13  C   UNL     1     -34.014   3.907  11.089  1.00  0.00    +0.009 A 
ATOM     14  C   UNL     1     -32.508   2.377   9.984  1.00  0.00    +0.009 A 
ATOM     15  C   UNL     1     -34.019   3.086  12.219  1.00  0.00    +0.001 A 
ATOM     16  C   UNL     1     -32.513   1.556  11.114  1.00  0.00    +0.001 A 
ATOM     17  C   UNL     1     -33.269   1.910  12.229  1.00  0.00    +0.000 A 
ENDBRANCH   3  12
BRANCH   4  18
ATOM     18  O   UNL     1     -31.396   5.741   9.551  1.00  0.00    -0.507 OA
ATOM     19  H   UNL     1     -31.134   6.676   9.485  1.00  0.00    +0.293 HD
ENDBRANCH   4  18
TORSDOF 2
ENDMDL
MODEL 7
REMARK VINA RESULT:    -7.778      6.918      9.567
REMARK INTER + INTRA:          -8.852
REMARK INTER:                  -8.461
REMARK INTRA:                  -0.391
REMARK UNBOUND:                -0.392
REMARK SMILES Cc1nc2ccccc2c(O)c1-c1ccccc1
REMARK SMILES IDX 1 1 2 2 12 3 10 4 9 5 8 6 7 7 6 8 5 9 4 10 3 11 13 12 14 13
REMARK SMILES IDX 18 14 15 15 17 16 16 17 11 18
REMARK H PARENT 11 19
ROOT
ATOM      1  C   UNL     1     -27.626  -0.631  12.607  1.00  0.00    +0.067 C 
ATOM      2  C   UNL     1     -27.451   0.627  11.800  1.00  0.00    +0.050 A 
ATOM      3  C   UNL     1     -28.499   1.162  11.040  1.00  0.00    +0.045 A 
ATOM      4  C   UNL     1     -28.213   2.341  10.330  1.00  0.00    +0.134 A 
ATOM      5  C   UNL     1     -26.942   2.944  10.384  1.00  0.00    +0.043 A 
ATOM      6  C   UNL     1     -26.611   4.128   9.687  1.00  0.00    +0.014 A 
ATOM      7  C   UNL     1     -25.335   4.680   9.777  1.00  0.00    +0.001 A 
ATOM      8  C   UNL     1     -24.378   4.055  10.566  1.00  0.00    +0.002 A 
ATOM      9  C   UNL     1     -24.704   2.884  11.255  1.00  0.00    +0.029 A 
ATOM     10  C   UNL     1     -25.969   2.316  11.180  1.00  0.00    +0.074 A 
ATOM     11  N   UNL     1     -26.216   1.190  11.868  1.00  0.00    -0.252 NA
ENDROOT
BRANCH   3  12
ATOM     12  C   UNL     1     -29.823   0.529  10.989  1.00  0.00    -0.013 A 
ATOM     13  C   UNL     1     -30.107  -0.459  10.035  1.00  0.00    +0.009 A 
ATOM     14  C   UNL     1     -30.821   0.882  11.911  1.00  0.00    +0.009 A 
ATOM     15  C   UNL     1     -31.359  -1.076   9.999  1.00  0.00    +0.001 A 
ATOM     16  C   UNL     1     -32.073   0.265  11.875  1.00  0.00    +0.001 A 
ATOM     17  C   UNL     1     -32.341  -0.713  10.920  1.00  0.00    +0.000 A 
ENDBRANCH   3  12
BRANCH   4  18
ATOM     18  O   UNL     1     -29.173   2.953   9.551  1.00  0.00    -0.507 OA
ATOM     19  H   UNL     1     -29.357   3.840   9.906  1.00  0.00    +0.293 HD
ENDBRANCH   4  18
TORSDOF 2
ENDMDL
MODEL 8
REMARK VINA RESULT:    -7.759      4.550      6.913
REMARK INTER + INTRA:          -8.831
REMARK INTER:                  -8.440
REMARK INTRA:                  -0.391
REMARK UNBOUND:                -0.392
REMARK SMILES Cc1nc2ccccc2c(O)c1-c1ccccc1
REMARK SMILES IDX 1 1 2 2 12 3 10 4 9 5 8 6 7 7 6 8 5 9 4 10 3 11 13 12 14 13
REMARK SMILES IDX 18 14 15 15 17 16 16 17 11 18
REMARK H PARENT 11 19
ROOT
ATOM      1  C   UNL     1     -32.845   4.637   9.864  1.00  0.00    +0.067 C 
ATOM      2  C   UNL     1     -34.307   4.320  10.022  1.00  0.00    +0.050 A 
ATOM      3  C   UNL     1     -34.739   3.086  10.526  1.00  0.00    +0.045 A 
ATOM      4  C   UNL     1     -36.130   2.909  10.626  1.00  0.00    +0.134 A 
ATOM      5  C   UNL     1     -37.032   3.919  10.239  1.00  0.00    +0.043 A 
ATOM      6  C   UNL     1     -38.436   3.783  10.323  1.00  0.00    +0.014 A 
ATOM      7  C   UNL     1     -39.281   4.817   9.926  1.00  0.00    +0.001 A 
ATOM      8  C   UNL     1     -38.731   5.997   9.442  1.00  0.00    +0.002 A 
ATOM      9  C   UNL     1     -37.343   6.132   9.359  1.00  0.00    +0.029 A 
ATOM     10  C   UNL     1     -36.481   5.115   9.749  1.00  0.00    +0.074 A 
ATOM     11  N   UNL     1     -35.157   5.310   9.643  1.00  0.00    -0.252 NA
ENDROOT
BRANCH   3  12
ATOM     12  C   UNL     1     -33.794   2.037  10.927  1.00  0.00    -0.013 A 
ATOM     13  C   UNL     1     -33.361   1.073  10.006  1.00  0.00    +0.009 A 
ATOM     14  C   UNL     1     -33.284   1.996  12.235  1.00  0.00    +0.009 A 
ATOM     15  C   UNL     1     -32.447   0.087  10.382  1.00  0.00    +0.001 A 
ATOM     16  C   UNL     1     -32.370   1.011  12.611  1.00  0.00    +0.001 A 
ATOM     17  C   UNL     1     -31.951   0.058  11.685  1.00  0.00    +0.000 A 
ENDBRANCH   3  12
BRANCH   4  18
ATOM     18  O   UNL     1     -36.664   1.733  11.109  1.00  0.00    -0.507 OA
ATOM     19  H   UNL     1     -37.546   1.597  10.721  1.00  0.00    +0.293 HD
ENDBRANCH   4  18
TORSDOF 2
ENDMDL
MODEL 9
REMARK VINA RESULT:    -7.300      5.299      6.353
REMARK INTER + INTRA:          -8.332
REMARK INTER:                  -8.001
REMARK INTRA:                  -0.331
REMARK UNBOUND:                -0.392
REMARK SMILES Cc1nc2ccccc2c(O)c1-c1ccccc1
REMARK SMILES IDX 1 1 2 2 12 3 10 4 9 5 8 6 7 7 6 8 5 9 4 10 3 11 13 12 14 13
REMARK SMILES IDX 18 14 15 15 17 16 16 17 11 18
REMARK H PARENT 11 19
ROOT
ATOM      1  C   UNL     1     -36.926   1.716  10.892  1.00  0.00    +0.067 C 
ATOM      2  C   UNL     1     -35.465   1.969  10.636  1.00  0.00    +0.050 A 
ATOM      3  C   UNL     1     -34.979   3.256  10.374  1.00  0.00    +0.045 A 
ATOM      4  C   UNL     1     -33.595   3.365  10.150  1.00  0.00    +0.134 A 
ATOM      5  C   UNL     1     -32.752   2.237  10.190  1.00  0.00    +0.043 A 
ATOM      6  C   UNL     1     -31.357   2.300   9.972  1.00  0.00    +0.014 A 
ATOM      7  C   UNL     1     -30.571   1.152  10.023  1.00  0.00    +0.001 A 
ATOM      8  C   UNL     1     -31.171  -0.071  10.294  1.00  0.00    +0.002 A 
ATOM      9  C   UNL     1     -32.550  -0.135  10.509  1.00  0.00    +0.029 A 
ATOM     10  C   UNL     1     -33.353   0.997  10.463  1.00  0.00    +0.074 A 
ATOM     11  N   UNL     1     -34.672   0.866  10.680  1.00  0.00    -0.252 NA
ENDROOT
BRANCH   3  12
ATOM     12  C   UNL     1     -35.863   4.428  10.335  1.00  0.00    -0.013 A 
ATOM     13  C   UNL     1     -36.631   4.707   9.194  1.00  0.00    +0.009 A 
ATOM     14  C   UNL     1     -35.978   5.274  11.448  1.00  0.00    +0.009 A 
ATOM     15  C   UNL     1     -37.487   5.809   9.164  1.00  0.00    +0.001 A 
ATOM     16  C   UNL     1     -36.835   6.377  11.418  1.00  0.00    +0.001 A 
ATOM     17  C   UNL     1     -37.589   6.643  10.278  1.00  0.00    +0.000 A 
ENDBRANCH   3  12
BRANCH   4  18
ATOM     18  O   UNL     1     -33.011   4.585   9.884  1.00  0.00    -0.507 OA
ATOM     19  H   UNL     1     -32.875   4.673   8.924  1.00  0.00    +0.293 HD
ENDBRANCH   4  18
TORSDOF 2
ENDMDL
