REMARK SMILES CCOC(=O)c1ccc(N=C[C@@H]2CCCCC2=O)cc1
REMARK SMILES IDX 4 1 5 2 3 3 2 4 1 5 6 6 7 7 20 8 8 9 19 10 9 11 10 12 11 13
REMARK SMILES IDX 12 14 13 15 17 16 14 17 16 18 18 19 15 20
REMARK H PARENT
ROOT
ATOM      1  C   UNL     1       4.549   0.034   0.871  1.00  0.00    +0.338 C 
ATOM      2  O   UNL     1       5.158  -0.367   1.851  1.00  0.00    -0.246 OA
ENDROOT
BRANCH   1   3
ATOM      3  O   UNL     1       5.088   0.680  -0.193  1.00  0.00    -0.462 OA
BRANCH   3   4
ATOM      4  C   UNL     1       6.504   0.902  -0.137  1.00  0.00    +0.230 C 
ATOM      5  C   UNL     1       7.245  -0.301  -0.689  1.00  0.00    +0.049 C 
ENDBRANCH   3   4
ENDBRANCH   1   3
BRANCH   1   6
ATOM      6  C   UNL     1       3.081  -0.134   0.693  1.00  0.00    +0.060 A 
ATOM      7  C   UNL     1       2.364  -0.798   1.698  1.00  0.00    +0.018 A 
ATOM      8  C   UNL     1       2.399   0.340  -0.435  1.00  0.00    +0.018 A 
ATOM      9  C   UNL     1       0.983  -0.981   1.576  1.00  0.00    +0.029 A 
ATOM     10  C   UNL     1       1.018   0.154  -0.550  1.00  0.00    +0.029 A 
ATOM     11  C   UNL     1       0.301  -0.495   0.459  1.00  0.00    +0.063 A 
BRANCH  11  12
ATOM     12  N   UNL     1      -1.079  -0.702   0.344  1.00  0.00    -0.260 NA
ATOM     13  C   UNL     1      -1.829   0.331   0.566  1.00  0.00    +0.095 C 
BRANCH  13  14
ATOM     14  C   UNL     1      -3.338   0.264   0.480  1.00  0.00    +0.097 C 
ATOM     15  C   UNL     1      -3.848  -1.109   0.033  1.00  0.00    +0.017 C 
ATOM     16  C   UNL     1      -3.897   1.347  -0.426  1.00  0.00    +0.141 C 
ATOM     17  C   UNL     1      -5.368  -1.137  -0.114  1.00  0.00    +0.002 C 
ATOM     18  C   UNL     1      -5.389   1.316  -0.678  1.00  0.00    +0.076 C 
ATOM     19  O   UNL     1      -3.204   2.274  -0.848  1.00  0.00    -0.299 OA
ATOM     20  C   UNL     1      -5.838  -0.074  -1.100  1.00  0.00    +0.008 C 
ENDBRANCH  13  14
ENDBRANCH  11  12
ENDBRANCH   1   6
TORSDOF 5
