REMARK SMILES O=C(O)c1c2ccccc2nc2ccccc12
REMARK SMILES IDX 2 1 1 2 3 3 4 5 5 6 17 7 6 8 10 9 12 10 16 11 7 12 9 13
REMARK SMILES IDX 11 14 13 15 15 16 8 17 14 18
REMARK H PARENT 3 4
ROOT
ATOM      1  C   UNL     1       0.137  -2.378  -0.135  1.00  0.00    +0.337 C 
ATOM      2  O   UNL     1      -0.213  -3.084  -1.059  1.00  0.00    -0.246 OA
ENDROOT
BRANCH   1   3
ATOM      3  O   UNL     1       0.620  -2.881   1.014  1.00  0.00    -0.478 OA
ATOM      4  H   UNL     1       0.597  -3.853   0.887  1.00  0.00    +0.297 HD
ENDBRANCH   1   3
BRANCH   1   5
ATOM      5  C   UNL     1       0.049  -0.910  -0.066  1.00  0.00    +0.078 A 
ATOM      6  C   UNL     1      -1.233  -0.310  -0.063  1.00  0.00    +0.015 A 
ATOM      7  C   UNL     1       1.237  -0.142  -0.022  1.00  0.00    +0.015 A 
ATOM      8  C   UNL     1      -2.468  -1.011  -0.120  1.00  0.00    +0.011 A 
ATOM      9  C   UNL     1      -1.255   1.091   0.012  1.00  0.00    +0.072 A 
ATOM     10  C   UNL     1       1.065   1.249   0.050  1.00  0.00    +0.072 A 
ATOM     11  C   UNL     1       2.557  -0.666  -0.057  1.00  0.00    +0.011 A 
ATOM     12  C   UNL     1      -3.685  -0.332  -0.103  1.00  0.00    +0.001 A 
ATOM     13  C   UNL     1      -2.480   1.744   0.029  1.00  0.00    +0.029 A 
ATOM     14  N   UNL     1      -0.141   1.835   0.070  1.00  0.00    -0.248 NA
ATOM     15  C   UNL     1       2.189   2.064   0.097  1.00  0.00    +0.029 A 
ATOM     16  C   UNL     1       3.670   0.172  -0.010  1.00  0.00    +0.001 A 
ATOM     17  C   UNL     1      -3.691   1.052  -0.028  1.00  0.00    +0.002 A 
ATOM     18  C   UNL     1       3.485   1.544   0.069  1.00  0.00    +0.002 A 
ENDBRANCH   1   5
TORSDOF 2
