REMARK SMILES O=C(O)CCn1c2ccccc2c2ccccc21
REMARK SMILES IDX 2 1 1 2 3 3 4 5 5 6 6 7 7 8 18 9 12 10 8 11 17 12 13 13
REMARK SMILES IDX 11 14 9 15 16 16 14 17 10 18 15 19
REMARK H PARENT 3 4
ROOT
ATOM      1  C   UNL     1       3.888  -0.891   0.155  1.00  0.00    +0.305 C 
ATOM      2  O   UNL     1       4.333  -1.281  -0.911  1.00  0.00    -0.252 OA
ENDROOT
BRANCH   1   3
ATOM      3  O   UNL     1       4.680  -0.805   1.241  1.00  0.00    -0.481 OA
ATOM      4  H   UNL     1       5.560  -1.106   0.931  1.00  0.00    +0.296 HD
ENDBRANCH   1   3
BRANCH   1   5
ATOM      5  C   UNL     1       2.483  -0.464   0.448  1.00  0.00    +0.144 C 
BRANCH   5   6
ATOM      6  C   UNL     1       1.629  -0.578  -0.806  1.00  0.00    +0.134 C 
BRANCH   6   7
ATOM      7  N   UNL     1       0.253  -0.171  -0.558  1.00  0.00    -0.340 N 
ATOM      8  C   UNL     1      -0.752  -1.021  -0.139  1.00  0.00    +0.049 A 
ATOM      9  C   UNL     1      -0.218   1.121  -0.698  1.00  0.00    +0.049 A 
ATOM     10  C   UNL     1      -1.909  -0.249  -0.012  1.00  0.00    +0.007 A 
ATOM     11  C   UNL     1      -0.746  -2.398   0.144  1.00  0.00    +0.027 A 
ATOM     12  C   UNL     1       0.428   2.308  -1.085  1.00  0.00    +0.027 A 
ATOM     13  C   UNL     1      -1.573   1.096  -0.363  1.00  0.00    +0.007 A 
ATOM     14  C   UNL     1      -3.102  -0.875   0.407  1.00  0.00    +0.011 A 
ATOM     15  C   UNL     1      -1.941  -2.993   0.558  1.00  0.00    +0.002 A 
ATOM     16  C   UNL     1      -0.324   3.485  -1.133  1.00  0.00    +0.002 A 
ATOM     17  C   UNL     1      -2.310   2.299  -0.421  1.00  0.00    +0.011 A 
ATOM     18  C   UNL     1      -3.105  -2.244   0.688  1.00  0.00    +0.001 A 
ATOM     19  C   UNL     1      -1.676   3.483  -0.807  1.00  0.00    +0.001 A 
ENDBRANCH   6   7
ENDBRANCH   5   6
ENDBRANCH   1   5
TORSDOF 4
