REMARK SMILES O=C1c2ccccc2C(=O)N1O
REMARK SMILES IDX 12 1 11 3 2 4 9 5 1 6 3 7 8 8 10 9 4 10 7 11 5 12 6 13
REMARK H PARENT 12 2
ROOT
ATOM      1  O   UNL     1       3.521   0.230  -0.317  1.00  0.00    -0.278 OA
ATOM      2  H   UNL     1       3.766  -0.689  -0.093  1.00  0.00    +0.247 HD
ENDROOT
BRANCH   1   3
ATOM      3  N   UNL     1       2.131   0.175  -0.308  1.00  0.00    -0.148 N 
ATOM      4  C   UNL     1       1.348   1.272  -0.135  1.00  0.00    +0.285 C 
ATOM      5  C   UNL     1       1.461  -1.002  -0.195  1.00  0.00    +0.285 C 
ATOM      6  O   UNL     1       1.628   2.452  -0.039  1.00  0.00    -0.266 OA
ATOM      7  C   UNL     1      -0.018   0.749  -0.025  1.00  0.00    +0.055 A 
ATOM      8  C   UNL     1       0.051  -0.637  -0.062  1.00  0.00    +0.055 A 
ATOM      9  O   UNL     1       1.909  -2.132  -0.152  1.00  0.00    -0.266 OA
ATOM     10  C   UNL     1      -1.219   1.415   0.118  1.00  0.00    +0.015 A 
ATOM     11  C   UNL     1      -1.074  -1.430   0.042  1.00  0.00    +0.015 A 
ATOM     12  C   UNL     1      -2.374   0.633   0.218  1.00  0.00    +0.001 A 
ATOM     13  C   UNL     1      -2.302  -0.776   0.180  1.00  0.00    +0.001 A 
ENDBRANCH   1   3
TORSDOF 1
