REMARK SMILES O=C(O)C(=Cc1cc(Cl)c(O)c(Cl)c1)c1ccccc1
REMARK SMILES IDX 4 1 5 2 2 3 1 4 3 5 15 7 16 8 20 9 17 10 19 11 18 12 6 13
REMARK SMILES IDX 14 14 7 15 12 16 8 17 10 18 13 19 9 20 11 21
REMARK H PARENT 3 6 11 22
ROOT
ATOM      1  C   UNL     1      -0.660  -0.472   0.368  1.00  0.00    +0.067 C 
ATOM      2  C   UNL     1       0.007   0.441  -0.369  1.00  0.00    +0.024 C 
ENDROOT
BRANCH   1   3
ATOM      3  C   UNL     1      -0.035  -1.720   0.875  1.00  0.00    +0.336 C 
ATOM      4  O   UNL     1      -0.193  -2.196   1.985  1.00  0.00    -0.246 OA
BRANCH   3   5
ATOM      5  O   UNL     1       0.707  -2.351  -0.052  1.00  0.00    -0.478 OA
ATOM      6  H   UNL     1       1.020  -3.156   0.409  1.00  0.00    +0.297 HD
ENDBRANCH   3   5
ENDBRANCH   1   3
BRANCH   1   7
ATOM      7  C   UNL     1      -2.076  -0.209   0.699  1.00  0.00    -0.011 A 
ATOM      8  C   UNL     1      -2.450   0.931   1.427  1.00  0.00    +0.009 A 
ATOM      9  C   UNL     1      -3.070  -1.109   0.289  1.00  0.00    +0.009 A 
ATOM     10  C   UNL     1      -3.792   1.168   1.731  1.00  0.00    +0.001 A 
ATOM     11  C   UNL     1      -4.411  -0.869   0.594  1.00  0.00    +0.001 A 
ATOM     12  C   UNL     1      -4.772   0.269   1.313  1.00  0.00    +0.000 A 
ENDBRANCH   1   7
BRANCH   2  13
ATOM     13  C   UNL     1       1.428   0.407  -0.736  1.00  0.00    -0.022 A 
ATOM     14  C   UNL     1       2.427   0.449   0.244  1.00  0.00    +0.032 A 
ATOM     15  C   UNL     1       1.788   0.364  -2.088  1.00  0.00    +0.032 A 
ATOM     16  C   UNL     1       3.771   0.427  -0.132  1.00  0.00    +0.084 A 
ATOM     17  C   UNL     1       3.135   0.343  -2.458  1.00  0.00    +0.084 A 
ATOM     18  C   UNL     1       4.132   0.373  -1.481  1.00  0.00    +0.152 A 
ATOM     19 Cl   UNL     1       4.986   0.471   1.094  1.00  0.00    -0.080 Cl
ATOM     20 Cl   UNL     1       3.525   0.281  -4.139  1.00  0.00    -0.080 Cl
BRANCH  18  21
ATOM     21  O   UNL     1       5.452   0.353  -1.852  1.00  0.00    -0.505 OA
ATOM     22  H   UNL     1       5.991   0.379  -1.040  1.00  0.00    +0.293 HD
ENDBRANCH  18  21
ENDBRANCH   2  13
TORSDOF 5
