REMARK SMILES Cc1cc2ccccc2c(O)c1C#N
REMARK SMILES IDX 1 1 2 2 12 3 13 4 14 5 10 6 9 7 8 8 7 9 6 10 5 11 4 12 3 13
REMARK SMILES IDX 11 14
REMARK H PARENT 11 15
ROOT
ATOM      1  C   UNL     1       2.560  -1.937   0.797  1.00  0.00    +0.046 C 
ATOM      2  C   UNL     1       1.474  -0.992   0.355  1.00  0.00    -0.029 A 
ATOM      3  C   UNL     1       1.724   0.039  -0.567  1.00  0.00    +0.097 A 
ATOM      4  C   UNL     1       3.042   0.224  -1.112  1.00  0.00    +0.103 C 
ATOM      5  N   UNL     1       4.124   0.337  -1.520  1.00  0.00    -0.192 NA
ATOM      6  C   UNL     1       0.681   0.903  -0.943  1.00  0.00    +0.141 A 
ATOM      7  C   UNL     1      -0.636   0.747  -0.442  1.00  0.00    +0.025 A 
ATOM      8  C   UNL     1      -1.739   1.548  -0.828  1.00  0.00    +0.012 A 
ATOM      9  C   UNL     1      -3.011   1.350  -0.287  1.00  0.00    +0.001 A 
ATOM     10  C   UNL     1      -3.218   0.344   0.646  1.00  0.00    +0.001 A 
ATOM     11  C   UNL     1      -2.156  -0.471   1.031  1.00  0.00    +0.009 A 
ATOM     12  C   UNL     1      -0.870  -0.288   0.495  1.00  0.00    -0.014 A 
ATOM     13  C   UNL     1       0.181  -1.135   0.881  1.00  0.00    +0.013 A 
ENDROOT
BRANCH   6  14
ATOM     14  O   UNL     1       0.990   1.917  -1.819  1.00  0.00    -0.506 OA
ATOM     15  H   UNL     1       0.381   2.659  -1.674  1.00  0.00    +0.293 HD
ENDBRANCH   6  14
TORSDOF 1
