MODEL 1
REMARK VINA RESULT:    -8.998      0.000      0.000
REMARK INTER + INTRA:         -10.476
REMARK INTER:                 -10.577
REMARK INTRA:                   0.101
REMARK UNBOUND:                 0.101
REMARK SMILES CC(=O)c1ccc(N=C[C@@H]2CCCCC2=O)cc1
REMARK SMILES IDX 4 1 5 2 6 3 7 4 17 5 18 6 2 7 3 8 1 9 8 10 9 11 10 12 11 13
REMARK SMILES IDX 15 14 12 15 14 16 16 17 13 18
REMARK H PARENT
ROOT
ATOM      1  C   UNL     1     -27.355   9.861   6.482  1.00  0.00    +0.017 A 
ATOM      2  C   UNL     1     -27.962   8.748   7.074  1.00  0.00    +0.014 A 
ATOM      3  C   UNL     1     -29.334   8.762   7.347  1.00  0.00    +0.029 A 
ATOM      4  C   UNL     1     -30.115   9.874   7.022  1.00  0.00    +0.063 A 
ATOM      5  C   UNL     1     -29.505  10.990   6.447  1.00  0.00    +0.029 A 
ATOM      6  C   UNL     1     -28.135  10.984   6.172  1.00  0.00    +0.014 A 
ENDROOT
BRANCH   1   7
ATOM      7  C   UNL     1     -25.896   9.898   6.164  1.00  0.00    +0.159 C 
ATOM      8  O   UNL     1     -25.427  10.854   5.550  1.00  0.00    -0.295 OA
ATOM      9  C   UNL     1     -25.023   8.752   6.605  1.00  0.00    +0.093 C 
ENDBRANCH   1   7
BRANCH   4  10
ATOM     10  N   UNL     1     -31.483   9.894   7.304  1.00  0.00    -0.260 NA
ATOM     11  C   UNL     1     -32.188   8.809   7.170  1.00  0.00    +0.095 C 
BRANCH  11  12
ATOM     12  C   UNL     1     -31.723   7.445   6.704  1.00  0.00    +0.097 C 
ATOM     13  C   UNL     1     -32.134   7.211   5.246  1.00  0.00    +0.017 C 
ATOM     14  C   UNL     1     -32.259   6.354   7.610  1.00  0.00    +0.141 C 
ATOM     15  C   UNL     1     -33.610   6.850   5.076  1.00  0.00    +0.002 C 
ATOM     16  C   UNL     1     -33.695   5.925   7.414  1.00  0.00    +0.076 C 
ATOM     17  O   UNL     1     -31.589   5.911   8.544  1.00  0.00    -0.299 OA
ATOM     18  C   UNL     1     -33.985   5.655   5.945  1.00  0.00    +0.008 C 
ENDBRANCH  11  12
ENDBRANCH   4  10
TORSDOF 3
ENDMDL
MODEL 2
REMARK VINA RESULT:    -8.149      2.304      6.928
REMARK INTER + INTRA:          -9.477
REMARK INTER:                  -9.392
REMARK INTRA:                  -0.084
REMARK UNBOUND:                 0.101
REMARK SMILES CC(=O)c1ccc(N=C[C@@H]2CCCCC2=O)cc1
REMARK SMILES IDX 4 1 5 2 6 3 7 4 17 5 18 6 2 7 3 8 1 9 8 10 9 11 10 12 11 13
REMARK SMILES IDX 15 14 12 15 14 16 16 17 13 18
REMARK H PARENT
ROOT
ATOM      1  C   UNL     1     -34.003   5.119   8.958  1.00  0.00    +0.017 A 
ATOM      2  C   UNL     1     -32.639   5.412   8.863  1.00  0.00    +0.014 A 
ATOM      3  C   UNL     1     -32.163   6.191   7.802  1.00  0.00    +0.029 A 
ATOM      4  C   UNL     1     -33.040   6.696   6.838  1.00  0.00    +0.063 A 
ATOM      5  C   UNL     1     -34.398   6.388   6.926  1.00  0.00    +0.029 A 
ATOM      6  C   UNL     1     -34.880   5.610   7.981  1.00  0.00    +0.014 A 
ENDROOT
BRANCH   1   7
ATOM      7  C   UNL     1     -34.565   4.296  10.071  1.00  0.00    +0.159 C 
ATOM      8  O   UNL     1     -35.356   3.388   9.822  1.00  0.00    -0.295 OA
ATOM      9  C   UNL     1     -34.150   4.600  11.486  1.00  0.00    +0.093 C 
ENDBRANCH   1   7
BRANCH   4  10
ATOM     10  N   UNL     1     -32.565   7.465   5.773  1.00  0.00    -0.260 NA
ATOM     11  C   UNL     1     -31.739   8.443   5.998  1.00  0.00    +0.095 C 
BRANCH  11  12
ATOM     12  C   UNL     1     -31.194   8.918   7.329  1.00  0.00    +0.097 C 
ATOM     13  C   UNL     1     -31.801  10.276   7.699  1.00  0.00    +0.017 C 
ATOM     14  C   UNL     1     -29.680   8.980   7.302  1.00  0.00    +0.141 C 
ATOM     15  C   UNL     1     -31.183  11.451   6.941  1.00  0.00    +0.002 C 
ATOM     16  C   UNL     1     -29.041  10.171   6.622  1.00  0.00    +0.076 C 
ATOM     17  O   UNL     1     -28.993   8.045   7.716  1.00  0.00    -0.299 OA
ATOM     18  C   UNL     1     -29.668  11.470   7.103  1.00  0.00    +0.008 C 
ENDBRANCH  11  12
ENDBRANCH   4  10
TORSDOF 3
ENDMDL
MODEL 3
REMARK VINA RESULT:    -8.126      7.468      8.650
REMARK INTER + INTRA:          -9.450
REMARK INTER:                  -8.873
REMARK INTRA:                  -0.577
REMARK UNBOUND:                 0.101
REMARK SMILES CC(=O)c1ccc(N=C[C@@H]2CCCCC2=O)cc1
REMARK SMILES IDX 4 1 5 2 6 3 7 4 17 5 18 6 2 7 3 8 1 9 8 10 9 11 10 12 11 13
REMARK SMILES IDX 15 14 12 15 14 16 16 17 13 18
REMARK H PARENT
ROOT
ATOM      1  C   UNL     1     -26.334   4.404   9.357  1.00  0.00    +0.017 A 
ATOM      2  C   UNL     1     -25.663   4.425  10.583  1.00  0.00    +0.014 A 
ATOM      3  C   UNL     1     -25.634   3.279  11.386  1.00  0.00    +0.029 A 
ATOM      4  C   UNL     1     -26.259   2.101  10.969  1.00  0.00    +0.063 A 
ATOM      5  C   UNL     1     -26.943   2.086   9.753  1.00  0.00    +0.029 A 
ATOM      6  C   UNL     1     -26.977   3.227   8.947  1.00  0.00    +0.014 A 
ENDROOT
BRANCH   1   7
ATOM      7  C   UNL     1     -26.393   5.596   8.459  1.00  0.00    +0.159 C 
ATOM      8  O   UNL     1     -27.255   6.455   8.639  1.00  0.00    -0.295 OA
ATOM      9  C   UNL     1     -25.390   5.721   7.343  1.00  0.00    +0.093 C 
ENDBRANCH   1   7
BRANCH   4  10
ATOM     10  N   UNL     1     -26.240   0.959  11.774  1.00  0.00    -0.260 NA
ATOM     11  C   UNL     1     -27.210   0.740  12.611  1.00  0.00    +0.095 C 
BRANCH  11  12
ATOM     12  C   UNL     1     -28.427   1.602  12.877  1.00  0.00    +0.097 C 
ATOM     13  C   UNL     1     -28.653   1.754  14.386  1.00  0.00    +0.017 C 
ATOM     14  C   UNL     1     -29.653   1.032  12.191  1.00  0.00    +0.141 C 
ATOM     15  C   UNL     1     -29.287   0.526  15.037  1.00  0.00    +0.002 C 
ATOM     16  C   UNL     1     -30.345  -0.138  12.853  1.00  0.00    +0.076 C 
ATOM     17  O   UNL     1     -30.008   1.431  11.081  1.00  0.00    -0.299 OA
ATOM     18  C   UNL     1     -30.580   0.137  14.331  1.00  0.00    +0.008 C 
ENDBRANCH  11  12
ENDBRANCH   4  10
TORSDOF 3
ENDMDL
MODEL 4
REMARK VINA RESULT:    -8.109      3.798      6.343
REMARK INTER + INTRA:          -9.430
REMARK INTER:                  -8.954
REMARK INTRA:                  -0.476
REMARK UNBOUND:                 0.101
REMARK SMILES CC(=O)c1ccc(N=C[C@@H]2CCCCC2=O)cc1
REMARK SMILES IDX 4 1 5 2 6 3 7 4 17 5 18 6 2 7 3 8 1 9 8 10 9 11 10 12 11 13
REMARK SMILES IDX 15 14 12 15 14 16 16 17 13 18
REMARK H PARENT
ROOT
ATOM      1  C   UNL     1     -32.307   7.031   7.499  1.00  0.00    +0.017 A 
ATOM      2  C   UNL     1     -32.143   5.987   8.416  1.00  0.00    +0.014 A 
ATOM      3  C   UNL     1     -32.993   4.877   8.373  1.00  0.00    +0.029 A 
ATOM      4  C   UNL     1     -34.002   4.788   7.409  1.00  0.00    +0.063 A 
ATOM      5  C   UNL     1     -34.175   5.837   6.506  1.00  0.00    +0.029 A 
ATOM      6  C   UNL     1     -33.331   6.950   6.544  1.00  0.00    +0.014 A 
ENDROOT
BRANCH   1   7
ATOM      7  C   UNL     1     -31.426   8.237   7.497  1.00  0.00    +0.159 C 
ATOM      8  O   UNL     1     -30.214   8.109   7.337  1.00  0.00    -0.295 OA
ATOM      9  C   UNL     1     -32.046   9.594   7.698  1.00  0.00    +0.093 C 
ENDBRANCH   1   7
BRANCH   4  10
ATOM     10  N   UNL     1     -34.858   3.684   7.372  1.00  0.00    -0.260 NA
ATOM     11  C   UNL     1     -35.752   3.526   8.302  1.00  0.00    +0.095 C 
BRANCH  11  12
ATOM     12  C   UNL     1     -36.009   4.403   9.509  1.00  0.00    +0.097 C 
ATOM     13  C   UNL     1     -36.373   3.544  10.725  1.00  0.00    +0.017 C 
ATOM     14  C   UNL     1     -37.090   5.425   9.214  1.00  0.00    +0.141 C 
ATOM     15  C   UNL     1     -37.811   3.025  10.701  1.00  0.00    +0.002 C 
ATOM     16  C   UNL     1     -38.527   4.955   9.256  1.00  0.00    +0.076 C 
ATOM     17  O   UNL     1     -36.808   6.565   8.844  1.00  0.00    -0.299 OA
ATOM     18  C   UNL     1     -38.802   4.169  10.528  1.00  0.00    +0.008 C 
ENDBRANCH  11  12
ENDBRANCH   4  10
TORSDOF 3
ENDMDL
MODEL 5
REMARK VINA RESULT:    -7.930      4.661      7.994
REMARK INTER + INTRA:          -9.220
REMARK INTER:                  -8.765
REMARK INTRA:                  -0.455
REMARK UNBOUND:                 0.101
REMARK SMILES CC(=O)c1ccc(N=C[C@@H]2CCCCC2=O)cc1
REMARK SMILES IDX 4 1 5 2 6 3 7 4 17 5 18 6 2 7 3 8 1 9 8 10 9 11 10 12 11 13
REMARK SMILES IDX 15 14 12 15 14 16 16 17 13 18
REMARK H PARENT
ROOT
ATOM      1  C   UNL     1     -33.700   2.195  10.559  1.00  0.00    +0.017 A 
ATOM      2  C   UNL     1     -33.663   3.456  11.165  1.00  0.00    +0.014 A 
ATOM      3  C   UNL     1     -34.240   4.557  10.523  1.00  0.00    +0.029 A 
ATOM      4  C   UNL     1     -34.868   4.412   9.283  1.00  0.00    +0.063 A 
ATOM      5  C   UNL     1     -34.889   3.158   8.672  1.00  0.00    +0.029 A 
ATOM      6  C   UNL     1     -34.314   2.054   9.307  1.00  0.00    +0.014 A 
ENDROOT
BRANCH   1   7
ATOM      7  C   UNL     1     -33.104   0.985  11.201  1.00  0.00    +0.159 C 
ATOM      8  O   UNL     1     -33.276  -0.123  10.696  1.00  0.00    -0.295 OA
ATOM      9  C   UNL     1     -32.301   1.149  12.464  1.00  0.00    +0.093 C 
ENDBRANCH   1   7
BRANCH   4  10
ATOM     10  N   UNL     1     -35.435   5.514   8.636  1.00  0.00    -0.260 NA
ATOM     11  C   UNL     1     -34.863   6.011   7.581  1.00  0.00    +0.095 C 
BRANCH  11  12
ATOM     12  C   UNL     1     -33.580   5.560   6.914  1.00  0.00    +0.097 C 
ATOM     13  C   UNL     1     -32.399   6.408   7.401  1.00  0.00    +0.017 C 
ATOM     14  C   UNL     1     -33.708   5.609   5.405  1.00  0.00    +0.141 C 
ATOM     15  C   UNL     1     -32.334   7.793   6.758  1.00  0.00    +0.002 C 
ATOM     16  C   UNL     1     -33.574   6.959   4.735  1.00  0.00    +0.076 C 
ATOM     17  O   UNL     1     -34.022   4.610   4.756  1.00  0.00    -0.299 OA
ATOM     18  C   UNL     1     -32.341   7.693   5.238  1.00  0.00    +0.008 C 
ENDBRANCH  11  12
ENDBRANCH   4  10
TORSDOF 3
ENDMDL
MODEL 6
REMARK VINA RESULT:    -7.797      8.102      9.114
REMARK INTER + INTRA:          -9.064
REMARK INTER:                  -8.513
REMARK INTRA:                  -0.551
REMARK UNBOUND:                 0.101
REMARK SMILES CC(=O)c1ccc(N=C[C@@H]2CCCCC2=O)cc1
REMARK SMILES IDX 4 1 5 2 6 3 7 4 17 5 18 6 2 7 3 8 1 9 8 10 9 11 10 12 11 13
REMARK SMILES IDX 15 14 12 15 14 16 16 17 13 18
REMARK H PARENT
ROOT
ATOM      1  C   UNL     1     -32.497   0.810  10.824  1.00  0.00    +0.017 A 
ATOM      2  C   UNL     1     -33.181   1.131  12.002  1.00  0.00    +0.014 A 
ATOM      3  C   UNL     1     -33.710   2.414  12.176  1.00  0.00    +0.029 A 
ATOM      4  C   UNL     1     -33.576   3.383  11.177  1.00  0.00    +0.063 A 
ATOM      5  C   UNL     1     -32.879   3.066  10.011  1.00  0.00    +0.029 A 
ATOM      6  C   UNL     1     -32.347   1.787   9.830  1.00  0.00    +0.014 A 
ENDROOT
BRANCH   1   7
ATOM      7  C   UNL     1     -31.917  -0.545  10.584  1.00  0.00    +0.159 C 
ATOM      8  O   UNL     1     -32.326  -1.510  11.228  1.00  0.00    -0.295 OA
ATOM      9  C   UNL     1     -30.830  -0.702   9.553  1.00  0.00    +0.093 C 
ENDBRANCH   1   7
BRANCH   4  10
ATOM     10  N   UNL     1     -34.095   4.668  11.355  1.00  0.00    -0.260 NA
ATOM     11  C   UNL     1     -35.214   5.001  10.782  1.00  0.00    +0.095 C 
BRANCH  11  12
ATOM     12  C   UNL     1     -36.085   4.156   9.875  1.00  0.00    +0.097 C 
ATOM     13  C   UNL     1     -36.717   5.026   8.782  1.00  0.00    +0.017 C 
ATOM     14  C   UNL     1     -37.143   3.421  10.675  1.00  0.00    +0.141 C 
ATOM     15  C   UNL     1     -37.901   5.860   9.270  1.00  0.00    +0.002 C 
ATOM     16  C   UNL     1     -38.362   4.205  11.108  1.00  0.00    +0.076 C 
ATOM     17  O   UNL     1     -36.969   2.263  11.055  1.00  0.00    -0.299 OA
ATOM     18  C   UNL     1     -38.951   4.981   9.940  1.00  0.00    +0.008 C 
ENDBRANCH  11  12
ENDBRANCH   4  10
TORSDOF 3
ENDMDL
MODEL 7
REMARK VINA RESULT:    -7.317      7.336      9.774
REMARK INTER + INTRA:          -8.499
REMARK INTER:                  -7.984
REMARK INTRA:                  -0.515
REMARK UNBOUND:                 0.101
REMARK SMILES CC(=O)c1ccc(N=C[C@@H]2CCCCC2=O)cc1
REMARK SMILES IDX 4 1 5 2 6 3 7 4 17 5 18 6 2 7 3 8 1 9 8 10 9 11 10 12 11 13
REMARK SMILES IDX 15 14 12 15 14 16 16 17 13 18
REMARK H PARENT
ROOT
ATOM      1  C   UNL     1     -33.581   3.123  10.940  1.00  0.00    +0.017 A 
ATOM      2  C   UNL     1     -33.375   2.064  11.830  1.00  0.00    +0.014 A 
ATOM      3  C   UNL     1     -32.324   1.165  11.616  1.00  0.00    +0.029 A 
ATOM      4  C   UNL     1     -31.463   1.320  10.526  1.00  0.00    +0.063 A 
ATOM      5  C   UNL     1     -31.680   2.367   9.630  1.00  0.00    +0.029 A 
ATOM      6  C   UNL     1     -32.728   3.268   9.836  1.00  0.00    +0.014 A 
ENDROOT
BRANCH   1   7
ATOM      7  C   UNL     1     -34.684   4.113  11.122  1.00  0.00    +0.159 C 
ATOM      8  O   UNL     1     -35.805   3.870  10.677  1.00  0.00    -0.295 OA
ATOM      9  C   UNL     1     -34.398   5.400  11.849  1.00  0.00    +0.093 C 
ENDBRANCH   1   7
BRANCH   4  10
ATOM     10  N   UNL     1     -30.419   0.417  10.306  1.00  0.00    -0.260 NA
ATOM     11  C   UNL     1     -29.199   0.749  10.611  1.00  0.00    +0.095 C 
BRANCH  11  12
ATOM     12  C   UNL     1     -28.705   2.060  11.188  1.00  0.00    +0.097 C 
ATOM     13  C   UNL     1     -27.909   2.839  10.134  1.00  0.00    +0.017 C 
ATOM     14  C   UNL     1     -27.880   1.823  12.437  1.00  0.00    +0.141 C 
ATOM     15  C   UNL     1     -26.491   2.310   9.922  1.00  0.00    +0.002 C 
ATOM     16  C   UNL     1     -26.448   1.370  12.255  1.00  0.00    +0.076 C 
ATOM     17  O   UNL     1     -28.384   1.887  13.559  1.00  0.00    -0.299 OA
ATOM     18  C   UNL     1     -25.728   2.244  11.240  1.00  0.00    +0.008 C 
ENDBRANCH  11  12
ENDBRANCH   4  10
TORSDOF 3
ENDMDL
MODEL 8
REMARK VINA RESULT:    -7.310      7.426      8.639
REMARK INTER + INTRA:          -8.491
REMARK INTER:                  -8.010
REMARK INTRA:                  -0.481
REMARK UNBOUND:                 0.101
REMARK SMILES CC(=O)c1ccc(N=C[C@@H]2CCCCC2=O)cc1
REMARK SMILES IDX 4 1 5 2 6 3 7 4 17 5 18 6 2 7 3 8 1 9 8 10 9 11 10 12 11 13
REMARK SMILES IDX 15 14 12 15 14 16 16 17 13 18
REMARK H PARENT
ROOT
ATOM      1  C   UNL     1     -31.317   1.405  11.352  1.00  0.00    +0.017 A 
ATOM      2  C   UNL     1     -32.306   1.340  12.339  1.00  0.00    +0.014 A 
ATOM      3  C   UNL     1     -33.653   1.483  11.988  1.00  0.00    +0.029 A 
ATOM      4  C   UNL     1     -34.027   1.676  10.656  1.00  0.00    +0.063 A 
ATOM      5  C   UNL     1     -33.038   1.758   9.676  1.00  0.00    +0.029 A 
ATOM      6  C   UNL     1     -31.691   1.617  10.018  1.00  0.00    +0.014 A 
ENDROOT
BRANCH   1   7
ATOM      7  C   UNL     1     -29.865   1.255  11.669  1.00  0.00    +0.159 C 
ATOM      8  O   UNL     1     -29.505   1.103  12.835  1.00  0.00    -0.295 OA
ATOM      9  C   UNL     1     -28.863   1.298  10.545  1.00  0.00    +0.093 C 
ENDBRANCH   1   7
BRANCH   4  10
ATOM     10  N   UNL     1     -35.372   1.829  10.306  1.00  0.00    -0.260 NA
ATOM     11  C   UNL     1     -35.830   3.004   9.992  1.00  0.00    +0.095 C 
BRANCH  11  12
ATOM     12  C   UNL     1     -35.083   4.321   9.965  1.00  0.00    +0.097 C 
ATOM     13  C   UNL     1     -35.197   5.027  11.321  1.00  0.00    +0.017 C 
ATOM     14  C   UNL     1     -35.585   5.205   8.840  1.00  0.00    +0.141 C 
ATOM     15  C   UNL     1     -36.546   5.711  11.544  1.00  0.00    +0.002 C 
ATOM     16  C   UNL     1     -36.881   5.951   9.063  1.00  0.00    +0.076 C 
ATOM     17  O   UNL     1     -35.023   5.228   7.744  1.00  0.00    -0.299 OA
ATOM     18  C   UNL     1     -36.870   6.668  10.404  1.00  0.00    +0.008 C 
ENDBRANCH  11  12
ENDBRANCH   4  10
TORSDOF 3
ENDMDL
MODEL 9
REMARK VINA RESULT:    -7.018      3.213      5.168
REMARK INTER + INTRA:          -8.148
REMARK INTER:                  -8.826
REMARK INTRA:                   0.678
REMARK UNBOUND:                 0.101
REMARK SMILES CC(=O)c1ccc(N=C[C@@H]2CCCCC2=O)cc1
REMARK SMILES IDX 4 1 5 2 6 3 7 4 17 5 18 6 2 7 3 8 1 9 8 10 9 11 10 12 11 13
REMARK SMILES IDX 15 14 12 15 14 16 16 17 13 18
REMARK H PARENT
ROOT
ATOM      1  C   UNL     1     -31.489   7.836   6.772  1.00  0.00    +0.017 A 
ATOM      2  C   UNL     1     -31.804   7.057   7.891  1.00  0.00    +0.014 A 
ATOM      3  C   UNL     1     -32.773   6.052   7.793  1.00  0.00    +0.029 A 
ATOM      4  C   UNL     1     -33.424   5.805   6.582  1.00  0.00    +0.063 A 
ATOM      5  C   UNL     1     -33.122   6.594   5.472  1.00  0.00    +0.029 A 
ATOM      6  C   UNL     1     -32.156   7.600   5.562  1.00  0.00    +0.014 A 
ENDROOT
BRANCH   1   7
ATOM      7  C   UNL     1     -30.461   8.919   6.819  1.00  0.00    +0.159 C 
ATOM      8  O   UNL     1     -30.785  10.081   6.581  1.00  0.00    -0.295 OA
ATOM      9  C   UNL     1     -29.038   8.561   7.157  1.00  0.00    +0.093 C 
ENDBRANCH   1   7
BRANCH   4  10
ATOM     10  N   UNL     1     -34.399   4.808   6.486  1.00  0.00    -0.260 NA
ATOM     11  C   UNL     1     -34.721   4.113   7.536  1.00  0.00    +0.095 C 
BRANCH  11  12
ATOM     12  C   UNL     1     -34.148   4.214   8.934  1.00  0.00    +0.097 C 
ATOM     13  C   UNL     1     -33.300   2.978   9.253  1.00  0.00    +0.017 C 
ATOM     14  C   UNL     1     -35.250   4.406   9.958  1.00  0.00    +0.141 C 
ATOM     15  C   UNL     1     -34.127   1.740   9.601  1.00  0.00    +0.002 C 
ATOM     16  C   UNL     1     -36.037   3.183  10.375  1.00  0.00    +0.076 C 
ATOM     17  O   UNL     1     -35.569   5.528  10.352  1.00  0.00    -0.299 OA
ATOM     18  C   UNL     1     -35.105   2.035  10.731  1.00  0.00    +0.008 C 
ENDBRANCH  11  12
ENDBRANCH   4  10
TORSDOF 3
ENDMDL
