MODEL 1
REMARK VINA RESULT:    -7.267      0.000      0.000
REMARK INTER + INTRA:          -8.298
REMARK INTER:                  -8.117
REMARK INTRA:                  -0.181
REMARK UNBOUND:                -0.181
REMARK SMILES NC(=O)Cc1c[nH]c2ccccc12
REMARK SMILES IDX 4 1 2 2 1 3 3 4 5 7 6 8 13 9 7 10 8 11 12 12 9 13 11 14
REMARK SMILES IDX 10 15
REMARK H PARENT 1 5 1 6 7 16
ROOT
ATOM      1  C   UNL     1     -26.224   8.853   5.502  1.00  0.00    +0.137 C 
ENDROOT
BRANCH   1   2
ATOM      2  C   UNL     1     -25.198   8.769   6.621  1.00  0.00    +0.221 C 
ATOM      3  N   UNL     1     -24.205   7.840   6.479  1.00  0.00    -0.369 N 
ATOM      4  O   UNL     1     -25.274   9.437   7.649  1.00  0.00    -0.275 OA
ATOM      5  H   UNL     1     -23.477   7.869   7.181  1.00  0.00    +0.159 HD
ATOM      6  H   UNL     1     -23.938   7.527   5.554  1.00  0.00    +0.159 HD
ENDBRANCH   1   2
BRANCH   1   7
ATOM      7  C   UNL     1     -27.014  10.124   5.523  1.00  0.00    -0.013 A 
ATOM      8  C   UNL     1     -26.635  11.333   4.970  1.00  0.00    +0.087 A 
ATOM      9  C   UNL     1     -28.303  10.327   6.116  1.00  0.00    +0.003 A 
ATOM     10  N   UNL     1     -27.630  12.243   5.198  1.00  0.00    -0.361 N 
ATOM     11  C   UNL     1     -28.664  11.655   5.888  1.00  0.00    +0.046 A 
ATOM     12  C   UNL     1     -29.203   9.498   6.819  1.00  0.00    +0.010 A 
ATOM     13  C   UNL     1     -29.878  12.197   6.326  1.00  0.00    +0.026 A 
ATOM     14  C   UNL     1     -30.421  10.024   7.264  1.00  0.00    +0.001 A 
ATOM     15  C   UNL     1     -30.751  11.354   7.018  1.00  0.00    +0.002 A 
ATOM     16  H   UNL     1     -27.615  13.210   4.904  1.00  0.00    +0.166 HD
ENDBRANCH   1   7
TORSDOF 2
ENDMDL
MODEL 2
REMARK VINA RESULT:    -7.261      2.676      4.550
REMARK INTER + INTRA:          -8.291
REMARK INTER:                  -8.195
REMARK INTRA:                  -0.095
REMARK UNBOUND:                -0.181
REMARK SMILES NC(=O)Cc1c[nH]c2ccccc12
REMARK SMILES IDX 4 1 2 2 1 3 3 4 5 7 6 8 13 9 7 10 8 11 12 12 9 13 11 14
REMARK SMILES IDX 10 15
REMARK H PARENT 1 5 1 6 7 16
ROOT
ATOM      1  C   UNL     1     -30.387  11.825   7.704  1.00  0.00    +0.137 C 
ENDROOT
BRANCH   1   2
ATOM      2  C   UNL     1     -31.537  10.847   7.525  1.00  0.00    +0.221 C 
ATOM      3  N   UNL     1     -31.803  10.435   6.249  1.00  0.00    -0.369 N 
ATOM      4  O   UNL     1     -32.257  10.486   8.452  1.00  0.00    -0.275 OA
ATOM      5  H   UNL     1     -32.503   9.709   6.162  1.00  0.00    +0.159 HD
ATOM      6  H   UNL     1     -31.069  10.450   5.552  1.00  0.00    +0.159 HD
ENDBRANCH   1   2
BRANCH   1   7
ATOM      7  C   UNL     1     -29.281  11.619   6.716  1.00  0.00    -0.013 A 
ATOM      8  C   UNL     1     -28.901  12.497   5.718  1.00  0.00    +0.087 A 
ATOM      9  C   UNL     1     -28.414  10.481   6.618  1.00  0.00    +0.003 A 
ATOM     10  N   UNL     1     -27.852  11.946   5.035  1.00  0.00    -0.361 N 
ATOM     11  C   UNL     1     -27.529  10.719   5.567  1.00  0.00    +0.046 A 
ATOM     12  C   UNL     1     -28.296   9.272   7.336  1.00  0.00    +0.010 A 
ATOM     13  C   UNL     1     -26.529   9.811   5.197  1.00  0.00    +0.026 A 
ATOM     14  C   UNL     1     -27.303   8.354   6.979  1.00  0.00    +0.001 A 
ATOM     15  C   UNL     1     -26.433   8.623   5.925  1.00  0.00    +0.002 A 
ATOM     16  H   UNL     1     -27.377  12.372   4.251  1.00  0.00    +0.166 HD
ENDBRANCH   1   7
TORSDOF 2
ENDMDL
MODEL 3
REMARK VINA RESULT:    -7.208      3.084      4.899
REMARK INTER + INTRA:          -8.231
REMARK INTER:                  -8.216
REMARK INTRA:                  -0.016
REMARK UNBOUND:                -0.181
REMARK SMILES NC(=O)Cc1c[nH]c2ccccc12
REMARK SMILES IDX 4 1 2 2 1 3 3 4 5 7 6 8 13 9 7 10 8 11 12 12 9 13 11 14
REMARK SMILES IDX 10 15
REMARK H PARENT 1 5 1 6 7 16
ROOT
ATOM      1  C   UNL     1     -31.273   9.996   7.535  1.00  0.00    +0.137 C 
ENDROOT
BRANCH   1   2
ATOM      2  C   UNL     1     -32.188   8.947   6.924  1.00  0.00    +0.221 C 
ATOM      3  N   UNL     1     -33.327   8.643   7.616  1.00  0.00    -0.369 N 
ATOM      4  O   UNL     1     -31.907   8.330   5.900  1.00  0.00    -0.275 OA
ATOM      5  H   UNL     1     -33.971   8.020   7.146  1.00  0.00    +0.159 HD
ATOM      6  H   UNL     1     -33.728   9.324   8.248  1.00  0.00    +0.159 HD
ENDBRANCH   1   2
BRANCH   1   7
ATOM      7  C   UNL     1     -29.849   9.865   7.090  1.00  0.00    -0.013 A 
ATOM      8  C   UNL     1     -29.036   8.760   7.263  1.00  0.00    +0.087 A 
ATOM      9  C   UNL     1     -29.067  10.852   6.406  1.00  0.00    +0.003 A 
ATOM     10  N   UNL     1     -27.813   9.035   6.716  1.00  0.00    -0.361 N 
ATOM     11  C   UNL     1     -27.805  10.302   6.179  1.00  0.00    +0.046 A 
ATOM     12  C   UNL     1     -29.319  12.163   5.951  1.00  0.00    +0.010 A 
ATOM     13  C   UNL     1     -26.784  10.994   5.518  1.00  0.00    +0.026 A 
ATOM     14  C   UNL     1     -28.309  12.869   5.289  1.00  0.00    +0.001 A 
ATOM     15  C   UNL     1     -27.061  12.290   5.076  1.00  0.00    +0.002 A 
ATOM     16  H   UNL     1     -27.024   8.404   6.704  1.00  0.00    +0.166 HD
ENDBRANCH   1   7
TORSDOF 2
ENDMDL
MODEL 4
REMARK VINA RESULT:    -7.096      1.581      2.506
REMARK INTER + INTRA:          -8.107
REMARK INTER:                  -7.944
REMARK INTRA:                  -0.162
REMARK UNBOUND:                -0.181
REMARK SMILES NC(=O)Cc1c[nH]c2ccccc12
REMARK SMILES IDX 4 1 2 2 1 3 3 4 5 7 6 8 13 9 7 10 8 11 12 12 9 13 11 14
REMARK SMILES IDX 10 15
REMARK H PARENT 1 5 1 6 7 16
ROOT
ATOM      1  C   UNL     1     -26.030   8.202   5.791  1.00  0.00    +0.137 C 
ENDROOT
BRANCH   1   2
ATOM      2  C   UNL     1     -25.327   7.538   6.963  1.00  0.00    +0.221 C 
ATOM      3  N   UNL     1     -25.480   6.186   7.088  1.00  0.00    -0.369 N 
ATOM      4  O   UNL     1     -24.708   8.169   7.816  1.00  0.00    -0.275 OA
ATOM      5  H   UNL     1     -24.924   5.748   7.812  1.00  0.00    +0.159 HD
ATOM      6  H   UNL     1     -25.691   5.625   6.272  1.00  0.00    +0.159 HD
ENDBRANCH   1   2
BRANCH   1   7
ATOM      7  C   UNL     1     -27.248   8.974   6.196  1.00  0.00    -0.013 A 
ATOM      8  C   UNL     1     -28.277   8.517   6.998  1.00  0.00    +0.087 A 
ATOM      9  C   UNL     1     -27.574  10.321   5.831  1.00  0.00    +0.003 A 
ATOM     10  N   UNL     1     -29.196   9.521   7.134  1.00  0.00    -0.361 N 
ATOM     11  C   UNL     1     -28.790  10.636   6.439  1.00  0.00    +0.046 A 
ATOM     12  C   UNL     1     -26.941  11.307   5.046  1.00  0.00    +0.010 A 
ATOM     13  C   UNL     1     -29.404  11.887   6.303  1.00  0.00    +0.026 A 
ATOM     14  C   UNL     1     -27.542  12.562   4.900  1.00  0.00    +0.001 A 
ATOM     15  C   UNL     1     -28.754  12.845   5.521  1.00  0.00    +0.002 A 
ATOM     16  H   UNL     1     -30.053   9.459   7.667  1.00  0.00    +0.166 HD
ENDBRANCH   1   7
TORSDOF 2
ENDMDL
MODEL 5
REMARK VINA RESULT:    -6.772      3.739      4.980
REMARK INTER + INTRA:          -7.745
REMARK INTER:                  -7.604
REMARK INTRA:                  -0.141
REMARK UNBOUND:                -0.181
REMARK SMILES NC(=O)Cc1c[nH]c2ccccc12
REMARK SMILES IDX 4 1 2 2 1 3 3 4 5 7 6 8 13 9 7 10 8 11 12 12 9 13 11 14
REMARK SMILES IDX 10 15
REMARK H PARENT 1 5 1 6 7 16
ROOT
ATOM      1  C   UNL     1     -26.955   4.462   8.572  1.00  0.00    +0.137 C 
ENDROOT
BRANCH   1   2
ATOM      2  C   UNL     1     -26.030   3.907   9.642  1.00  0.00    +0.221 C 
ATOM      3  N   UNL     1     -26.126   4.461  10.888  1.00  0.00    -0.369 N 
ATOM      4  O   UNL     1     -25.176   3.055   9.411  1.00  0.00    -0.275 OA
ATOM      5  H   UNL     1     -25.577   4.012  11.609  1.00  0.00    +0.159 HD
ATOM      6  H   UNL     1     -26.990   4.901  11.178  1.00  0.00    +0.159 HD
ENDBRANCH   1   2
BRANCH   1   7
ATOM      7  C   UNL     1     -26.411   5.686   7.901  1.00  0.00    -0.013 A 
ATOM      8  C   UNL     1     -25.144   5.832   7.369  1.00  0.00    +0.087 A 
ATOM      9  C   UNL     1     -27.097   6.926   7.686  1.00  0.00    +0.003 A 
ATOM     10  N   UNL     1     -25.039   7.092   6.845  1.00  0.00    -0.361 N 
ATOM     11  C   UNL     1     -26.218   7.779   7.018  1.00  0.00    +0.046 A 
ATOM     12  C   UNL     1     -28.390   7.400   7.992  1.00  0.00    +0.010 A 
ATOM     13  C   UNL     1     -26.567   9.080   6.637  1.00  0.00    +0.026 A 
ATOM     14  C   UNL     1     -28.754   8.698   7.619  1.00  0.00    +0.001 A 
ATOM     15  C   UNL     1     -27.854   9.523   6.951  1.00  0.00    +0.002 A 
ATOM     16  H   UNL     1     -24.217   7.469   6.394  1.00  0.00    +0.166 HD
ENDBRANCH   1   7
TORSDOF 2
ENDMDL
MODEL 6
REMARK VINA RESULT:    -6.699      3.091      4.740
REMARK INTER + INTRA:          -7.663
REMARK INTER:                  -7.499
REMARK INTRA:                  -0.164
REMARK UNBOUND:                -0.181
REMARK SMILES NC(=O)Cc1c[nH]c2ccccc12
REMARK SMILES IDX 4 1 2 2 1 3 3 4 5 7 6 8 13 9 7 10 8 11 12 12 9 13 11 14
REMARK SMILES IDX 10 15
REMARK H PARENT 1 5 1 6 7 16
ROOT
ATOM      1  C   UNL     1     -31.797   9.954   7.762  1.00  0.00    +0.137 C 
ENDROOT
BRANCH   1   2
ATOM      2  C   UNL     1     -32.213   8.644   7.114  1.00  0.00    +0.221 C 
ATOM      3  N   UNL     1     -32.496   7.603   7.953  1.00  0.00    -0.369 N 
ATOM      4  O   UNL     1     -32.230   8.476   5.897  1.00  0.00    -0.275 OA
ATOM      5  H   UNL     1     -32.869   6.773   7.510  1.00  0.00    +0.159 HD
ATOM      6  H   UNL     1     -32.797   7.789   8.902  1.00  0.00    +0.159 HD
ENDBRANCH   1   2
BRANCH   1   7
ATOM      7  C   UNL     1     -30.662  10.626   7.053  1.00  0.00    -0.013 A 
ATOM      8  C   UNL     1     -30.706  11.854   6.419  1.00  0.00    +0.087 A 
ATOM      9  C   UNL     1     -29.327  10.128   6.898  1.00  0.00    +0.003 A 
ATOM     10  N   UNL     1     -29.468  12.115   5.899  1.00  0.00    -0.361 N 
ATOM     11  C   UNL     1     -28.605  11.083   6.183  1.00  0.00    +0.046 A 
ATOM     12  C   UNL     1     -28.663   8.953   7.310  1.00  0.00    +0.010 A 
ATOM     13  C   UNL     1     -27.252  10.925   5.859  1.00  0.00    +0.026 A 
ATOM     14  C   UNL     1     -27.311   8.779   6.994  1.00  0.00    +0.001 A 
ATOM     15  C   UNL     1     -26.618   9.753   6.281  1.00  0.00    +0.002 A 
ATOM     16  H   UNL     1     -29.216  12.946   5.380  1.00  0.00    +0.166 HD
ENDBRANCH   1   7
TORSDOF 2
ENDMDL
MODEL 7
REMARK VINA RESULT:    -6.497      9.912     11.801
REMARK INTER + INTRA:          -7.438
REMARK INTER:                  -7.229
REMARK INTRA:                  -0.208
REMARK UNBOUND:                -0.181
REMARK SMILES NC(=O)Cc1c[nH]c2ccccc12
REMARK SMILES IDX 4 1 2 2 1 3 3 4 5 7 6 8 13 9 7 10 8 11 12 12 9 13 11 14
REMARK SMILES IDX 10 15
REMARK H PARENT 1 5 1 6 7 16
ROOT
ATOM      1  C   UNL     1     -37.520   4.308  10.739  1.00  0.00    +0.137 C 
ENDROOT
BRANCH   1   2
ATOM      2  C   UNL     1     -38.787   5.003  10.268  1.00  0.00    +0.221 C 
ATOM      3  N   UNL     1     -39.664   4.256   9.532  1.00  0.00    -0.369 N 
ATOM      4  O   UNL     1     -39.005   6.197  10.459  1.00  0.00    -0.275 OA
ATOM      5  H   UNL     1     -40.545   4.704   9.316  1.00  0.00    +0.159 HD
ATOM      6  H   UNL     1     -39.675   3.248   9.635  1.00  0.00    +0.159 HD
ENDBRANCH   1   2
BRANCH   1   7
ATOM      7  C   UNL     1     -36.689   3.776   9.613  1.00  0.00    -0.013 A 
ATOM      8  C   UNL     1     -36.514   2.445   9.283  1.00  0.00    +0.087 A 
ATOM      9  C   UNL     1     -35.922   4.539   8.672  1.00  0.00    +0.003 A 
ATOM     10  N   UNL     1     -35.689   2.375   8.194  1.00  0.00    -0.361 N 
ATOM     11  C   UNL     1     -35.319   3.639   7.795  1.00  0.00    +0.046 A 
ATOM     12  C   UNL     1     -35.694   5.919   8.481  1.00  0.00    +0.010 A 
ATOM     13  C   UNL     1     -34.500   4.045   6.735  1.00  0.00    +0.026 A 
ATOM     14  C   UNL     1     -34.878   6.342   7.426  1.00  0.00    +0.001 A 
ATOM     15  C   UNL     1     -34.292   5.417   6.567  1.00  0.00    +0.002 A 
ATOM     16  H   UNL     1     -35.391   1.522   7.741  1.00  0.00    +0.166 HD
ENDBRANCH   1   7
TORSDOF 2
ENDMDL
MODEL 8
REMARK VINA RESULT:    -6.461      7.691      9.085
REMARK INTER + INTRA:          -7.398
REMARK INTER:                  -7.261
REMARK INTRA:                  -0.136
REMARK UNBOUND:                -0.181
REMARK SMILES NC(=O)Cc1c[nH]c2ccccc12
REMARK SMILES IDX 4 1 2 2 1 3 3 4 5 7 6 8 13 9 7 10 8 11 12 12 9 13 11 14
REMARK SMILES IDX 10 15
REMARK H PARENT 1 5 1 6 7 16
ROOT
ATOM      1  C   UNL     1     -35.140   3.612   7.067  1.00  0.00    +0.137 C 
ENDROOT
BRANCH   1   2
ATOM      2  C   UNL     1     -36.008   3.047   8.179  1.00  0.00    +0.221 C 
ATOM      3  N   UNL     1     -35.720   1.780   8.604  1.00  0.00    -0.369 N 
ATOM      4  O   UNL     1     -36.976   3.646   8.642  1.00  0.00    -0.275 OA
ATOM      5  H   UNL     1     -36.240   1.461   9.411  1.00  0.00    +0.159 HD
ATOM      6  H   UNL     1     -34.785   1.411   8.487  1.00  0.00    +0.159 HD
ENDBRANCH   1   2
BRANCH   1   7
ATOM      7  C   UNL     1     -34.202   4.679   7.538  1.00  0.00    -0.013 A 
ATOM      8  C   UNL     1     -33.740   4.851   8.830  1.00  0.00    +0.087 A 
ATOM      9  C   UNL     1     -33.610   5.717   6.746  1.00  0.00    +0.003 A 
ATOM     10  N   UNL     1     -32.901   5.932   8.848  1.00  0.00    -0.361 N 
ATOM     11  C   UNL     1     -32.797   6.475   7.588  1.00  0.00    +0.046 A 
ATOM     12  C   UNL     1     -33.684   6.075   5.383  1.00  0.00    +0.010 A 
ATOM     13  C   UNL     1     -32.054   7.573   7.139  1.00  0.00    +0.026 A 
ATOM     14  C   UNL     1     -32.947   7.170   4.918  1.00  0.00    +0.001 A 
ATOM     15  C   UNL     1     -32.144   7.905   5.785  1.00  0.00    +0.002 A 
ATOM     16  H   UNL     1     -32.423   6.286   9.665  1.00  0.00    +0.166 HD
ENDBRANCH   1   7
TORSDOF 2
ENDMDL
MODEL 9
REMARK VINA RESULT:    -6.320      8.884     10.588
REMARK INTER + INTRA:          -7.239
REMARK INTER:                  -7.026
REMARK INTRA:                  -0.213
REMARK UNBOUND:                -0.181
REMARK SMILES NC(=O)Cc1c[nH]c2ccccc12
REMARK SMILES IDX 4 1 2 2 1 3 3 4 5 7 6 8 13 9 7 10 8 11 12 12 9 13 11 14
REMARK SMILES IDX 10 15
REMARK H PARENT 1 5 1 6 7 16
ROOT
ATOM      1  C   UNL     1     -33.858   5.286   7.872  1.00  0.00    +0.137 C 
ENDROOT
BRANCH   1   2
ATOM      2  C   UNL     1     -34.167   6.506   7.021  1.00  0.00    +0.221 C 
ATOM      3  N   UNL     1     -34.374   7.684   7.683  1.00  0.00    -0.369 N 
ATOM      4  O   UNL     1     -34.305   6.453   5.801  1.00  0.00    -0.275 OA
ATOM      5  H   UNL     1     -34.476   8.503   7.097  1.00  0.00    +0.159 HD
ATOM      6  H   UNL     1     -33.965   7.825   8.598  1.00  0.00    +0.159 HD
ENDBRANCH   1   2
BRANCH   1   7
ATOM      7  C   UNL     1     -35.076   4.488   8.219  1.00  0.00    -0.013 A 
ATOM      8  C   UNL     1     -35.518   3.347   7.576  1.00  0.00    +0.087 A 
ATOM      9  C   UNL     1     -36.008   4.754   9.276  1.00  0.00    +0.003 A 
ATOM     10  N   UNL     1     -36.660   2.917   8.196  1.00  0.00    -0.361 N 
ATOM     11  C   UNL     1     -36.978   3.753   9.241  1.00  0.00    +0.046 A 
ATOM     12  C   UNL     1     -36.109   5.753  10.267  1.00  0.00    +0.010 A 
ATOM     13  C   UNL     1     -38.043   3.697  10.147  1.00  0.00    +0.026 A 
ATOM     14  C   UNL     1     -37.168   5.713  11.181  1.00  0.00    +0.001 A 
ATOM     15  C   UNL     1     -38.119   4.698  11.120  1.00  0.00    +0.002 A 
ATOM     16  H   UNL     1     -37.198   2.104   7.929  1.00  0.00    +0.166 HD
ENDBRANCH   1   7
TORSDOF 2
ENDMDL
