REMARK SMILES CCc1cccc(CC)c1Nc1nc(C)nc2c1cnn2-c1ccccc1
REMARK SMILES IDX 3 1 10 2 7 3 6 4 5 5 4 6 2 7 1 8 11 9 12 11 18 12 13 13
REMARK SMILES IDX 19 14 17 15 14 16 20 17 21 18 16 19 15 20 22 21 23 22 27 23
REMARK SMILES IDX 24 24 26 25 25 26 8 27 9 28
REMARK H PARENT 11 10
ROOT
ATOM      1  C   UNL     1      -2.559  -0.127  -1.974  1.00  0.00    -0.024 A 
ATOM      2  C   UNL     1      -2.673  -0.002  -0.569  1.00  0.00    +0.046 A 
ATOM      3  C   UNL     1      -3.599  -0.817   0.128  1.00  0.00    -0.024 A 
ATOM      4  C   UNL     1      -4.322  -1.801  -0.566  1.00  0.00    +0.006 A 
ATOM      5  C   UNL     1      -4.172  -1.953  -1.939  1.00  0.00    +0.001 A 
ATOM      6  C   UNL     1      -3.308  -1.115  -2.638  1.00  0.00    +0.006 A 
ENDROOT
BRANCH   1   7
ATOM      7  C   UNL     1      -1.706   0.789  -2.827  1.00  0.00    +0.034 C 
ATOM      8  C   UNL     1      -2.389   2.123  -3.098  1.00  0.00    +0.009 C 
ENDBRANCH   1   7
BRANCH   2   9
ATOM      9  N   UNL     1      -1.979   0.989   0.158  1.00  0.00    -0.339 N 
ATOM     10  H   UNL     1      -2.383   1.913   0.033  1.00  0.00    +0.168 HD
BRANCH   9  11
ATOM     11  C   UNL     1      -0.589   1.143   0.268  1.00  0.00    +0.145 A 
ATOM     12  C   UNL     1       0.349   0.106   0.222  1.00  0.00    +0.082 A 
ATOM     13  N   UNL     1      -0.134   2.406   0.445  1.00  0.00    -0.215 NA
ATOM     14  C   UNL     1       0.346  -1.289   0.069  1.00  0.00    +0.150 A 
ATOM     15  C   UNL     1       1.688   0.441   0.350  1.00  0.00    +0.168 A 
ATOM     16  C   UNL     1       1.191   2.622   0.571  1.00  0.00    +0.130 A 
ATOM     17  N   UNL     1       1.567  -1.821   0.092  1.00  0.00    -0.174 NA
ATOM     18  N   UNL     1       2.406  -0.753   0.267  1.00  0.00    -0.215 N 
ATOM     19  N   UNL     1       2.159   1.693   0.520  1.00  0.00    -0.213 NA
ATOM     20  C   UNL     1       1.628   4.046   0.737  1.00  0.00    +0.090 C 
BRANCH  18  21
ATOM     21  C   UNL     1       3.817  -0.972   0.337  1.00  0.00    +0.067 A 
ATOM     22  C   UNL     1       4.312  -2.284   0.224  1.00  0.00    +0.028 A 
ATOM     23  C   UNL     1       4.726   0.079   0.516  1.00  0.00    +0.028 A 
ATOM     24  C   UNL     1       5.685  -2.535   0.288  1.00  0.00    +0.002 A 
ATOM     25  C   UNL     1       6.100  -0.179   0.580  1.00  0.00    +0.002 A 
ATOM     26  C   UNL     1       6.578  -1.483   0.466  1.00  0.00    +0.000 A 
ENDBRANCH  18  21
ENDBRANCH   9  11
ENDBRANCH   2   9
BRANCH   3  27
ATOM     27  C   UNL     1      -3.820  -0.686   1.620  1.00  0.00    +0.034 C 
ATOM     28  C   UNL     1      -2.859  -1.547   2.425  1.00  0.00    +0.009 C 
ENDBRANCH   3  27
TORSDOF 5
