MODEL 1
REMARK VINA RESULT:    -8.484      0.000      0.000
REMARK INTER + INTRA:          -8.915
REMARK INTER:                  -8.980
REMARK INTRA:                   0.065
REMARK UNBOUND:                 0.065
REMARK SMILES Clc1ncnc2c1cnn2-c1ccccc1
REMARK SMILES IDX 1 1 2 2 7 3 8 4 9 5 10 6 6 7 5 8 4 9 3 10 11 11 12 12 16 13
REMARK SMILES IDX 13 14 15 15 14 16
REMARK H PARENT
ROOT
ATOM      1 Cl   UNL     1     -26.940   4.488   8.929  1.00  0.00    -0.061 Cl
ATOM      2  C   UNL     1     -26.478   5.943   8.190  1.00  0.00    +0.143 A 
ATOM      3  C   UNL     1     -27.443   6.892   7.915  1.00  0.00    +0.077 A 
ATOM      4  C   UNL     1     -28.823   7.068   8.061  1.00  0.00    +0.149 A 
ATOM      5  N   UNL     1     -29.246   8.242   7.595  1.00  0.00    -0.174 NA
ATOM      6  N   UNL     1     -28.116   8.864   7.127  1.00  0.00    -0.215 N 
ATOM      7  C   UNL     1     -26.992   8.055   7.311  1.00  0.00    +0.167 A 
ATOM      8  N   UNL     1     -25.703   8.305   6.986  1.00  0.00    -0.216 NA
ATOM      9  C   UNL     1     -24.875   7.298   7.310  1.00  0.00    +0.226 A 
ATOM     10  N   UNL     1     -25.186   6.130   7.893  1.00  0.00    -0.224 NA
ENDROOT
BRANCH   6  11
ATOM     11  C   UNL     1     -28.216  10.166   6.550  1.00  0.00    +0.067 A 
ATOM     12  C   UNL     1     -27.174  10.729   5.802  1.00  0.00    +0.028 A 
ATOM     13  C   UNL     1     -29.396  10.909   6.736  1.00  0.00    +0.028 A 
ATOM     14  C   UNL     1     -27.312  12.009   5.252  1.00  0.00    +0.002 A 
ATOM     15  C   UNL     1     -29.527  12.187   6.184  1.00  0.00    +0.002 A 
ATOM     16  C   UNL     1     -28.485  12.735   5.444  1.00  0.00    +0.000 A 
ENDBRANCH   6  11
TORSDOF 1
ENDMDL
MODEL 2
REMARK VINA RESULT:    -8.332      2.121      3.627
REMARK INTER + INTRA:          -8.754
REMARK INTER:                  -8.737
REMARK INTRA:                  -0.017
REMARK UNBOUND:                 0.065
REMARK SMILES Clc1ncnc2c1cnn2-c1ccccc1
REMARK SMILES IDX 1 1 2 2 7 3 8 4 9 5 10 6 6 7 5 8 4 9 3 10 11 11 12 12 16 13
REMARK SMILES IDX 13 14 15 15 14 16
REMARK H PARENT
ROOT
ATOM      1 Cl   UNL     1     -31.255   5.387   8.874  1.00  0.00    -0.061 Cl
ATOM      2  C   UNL     1     -31.263   6.807   7.947  1.00  0.00    +0.143 A 
ATOM      3  C   UNL     1     -30.084   7.508   7.783  1.00  0.00    +0.077 A 
ATOM      4  C   UNL     1     -28.743   7.424   8.170  1.00  0.00    +0.149 A 
ATOM      5  N   UNL     1     -28.005   8.429   7.699  1.00  0.00    -0.174 NA
ATOM      6  N   UNL     1     -28.881   9.201   6.978  1.00  0.00    -0.215 N 
ATOM      7  C   UNL     1     -30.167   8.658   7.013  1.00  0.00    +0.167 A 
ATOM      8  N   UNL     1     -31.299   9.117   6.433  1.00  0.00    -0.216 NA
ATOM      9  C   UNL     1     -32.367   8.338   6.675  1.00  0.00    +0.226 A 
ATOM     10  N   UNL     1     -32.416   7.209   7.399  1.00  0.00    -0.224 NA
ENDROOT
BRANCH   6  11
ATOM     11  C   UNL     1     -28.408  10.381   6.327  1.00  0.00    +0.067 A 
ATOM     12  C   UNL     1     -27.139  10.446   5.737  1.00  0.00    +0.028 A 
ATOM     13  C   UNL     1     -29.239  11.514   6.275  1.00  0.00    +0.028 A 
ATOM     14  C   UNL     1     -26.712  11.621   5.108  1.00  0.00    +0.002 A 
ATOM     15  C   UNL     1     -28.807  12.685   5.645  1.00  0.00    +0.002 A 
ATOM     16  C   UNL     1     -27.544  12.737   5.064  1.00  0.00    +0.000 A 
ENDBRANCH   6  11
TORSDOF 1
ENDMDL
MODEL 3
REMARK VINA RESULT:    -8.246      2.768      5.907
REMARK INTER + INTRA:          -8.663
REMARK INTER:                  -8.749
REMARK INTRA:                   0.086
REMARK UNBOUND:                 0.065
REMARK SMILES Clc1ncnc2c1cnn2-c1ccccc1
REMARK SMILES IDX 1 1 2 2 7 3 8 4 9 5 10 6 6 7 5 8 4 9 3 10 11 11 12 12 16 13
REMARK SMILES IDX 13 14 15 15 14 16
REMARK H PARENT
ROOT
ATOM      1 Cl   UNL     1     -28.395  13.400   5.073  1.00  0.00    -0.061 Cl
ATOM      2  C   UNL     1     -28.692  11.923   5.852  1.00  0.00    +0.143 A 
ATOM      3  C   UNL     1     -27.672  10.996   5.943  1.00  0.00    +0.077 A 
ATOM      4  C   UNL     1     -26.333  10.858   5.563  1.00  0.00    +0.149 A 
ATOM      5  N   UNL     1     -25.810   9.689   5.929  1.00  0.00    -0.174 NA
ATOM      6  N   UNL     1     -26.829   9.032   6.571  1.00  0.00    -0.215 N 
ATOM      7  C   UNL     1     -27.987   9.812   6.593  1.00  0.00    +0.167 A 
ATOM      8  N   UNL     1     -29.196   9.525   7.126  1.00  0.00    -0.216 NA
ATOM      9  C   UNL     1     -30.090  10.515   6.966  1.00  0.00    +0.226 A 
ATOM     10  N   UNL     1     -29.909  11.698   6.360  1.00  0.00    -0.224 NA
ENDROOT
BRANCH   6  11
ATOM     11  C   UNL     1     -26.603   7.724   7.099  1.00  0.00    +0.067 A 
ATOM     12  C   UNL     1     -27.553   7.069   7.892  1.00  0.00    +0.028 A 
ATOM     13  C   UNL     1     -25.389   7.072   6.816  1.00  0.00    +0.028 A 
ATOM     14  C   UNL     1     -27.293   5.787   8.391  1.00  0.00    +0.002 A 
ATOM     15  C   UNL     1     -25.136   5.792   7.317  1.00  0.00    +0.002 A 
ATOM     16  C   UNL     1     -26.087   5.152   8.104  1.00  0.00    +0.000 A 
ENDBRANCH   6  11
TORSDOF 1
ENDMDL
MODEL 4
REMARK VINA RESULT:    -7.875      7.176      8.809
REMARK INTER + INTRA:          -8.270
REMARK INTER:                  -7.986
REMARK INTRA:                  -0.284
REMARK UNBOUND:                 0.065
REMARK SMILES Clc1ncnc2c1cnn2-c1ccccc1
REMARK SMILES IDX 1 1 2 2 7 3 8 4 9 5 10 6 6 7 5 8 4 9 3 10 11 11 12 12 16 13
REMARK SMILES IDX 13 14 15 15 14 16
REMARK H PARENT
ROOT
ATOM      1 Cl   UNL     1     -38.019   2.881  10.755  1.00  0.00    -0.061 Cl
ATOM      2  C   UNL     1     -36.635   3.008   9.784  1.00  0.00    +0.143 A 
ATOM      3  C   UNL     1     -36.318   4.230   9.223  1.00  0.00    +0.077 A 
ATOM      4  C   UNL     1     -36.816   5.536   9.188  1.00  0.00    +0.149 A 
ATOM      5  N   UNL     1     -36.068   6.355   8.449  1.00  0.00    -0.174 NA
ATOM      6  N   UNL     1     -35.044   5.570   7.981  1.00  0.00    -0.215 N 
ATOM      7  C   UNL     1     -35.174   4.258   8.441  1.00  0.00    +0.167 A 
ATOM      8  N   UNL     1     -34.376   3.191   8.205  1.00  0.00    -0.216 NA
ATOM      9  C   UNL     1     -34.803   2.071   8.812  1.00  0.00    +0.226 A 
ATOM     10  N   UNL     1     -35.886   1.916   9.588  1.00  0.00    -0.224 NA
ENDROOT
BRANCH   6  11
ATOM     11  C   UNL     1     -34.043   6.145   7.141  1.00  0.00    +0.067 A 
ATOM     12  C   UNL     1     -32.850   6.668   7.658  1.00  0.00    +0.028 A 
ATOM     13  C   UNL     1     -34.257   6.191   5.752  1.00  0.00    +0.028 A 
ATOM     14  C   UNL     1     -31.893   7.223   6.800  1.00  0.00    +0.002 A 
ATOM     15  C   UNL     1     -33.298   6.747   4.901  1.00  0.00    +0.002 A 
ATOM     16  C   UNL     1     -32.118   7.263   5.426  1.00  0.00    +0.000 A 
ENDBRANCH   6  11
TORSDOF 1
ENDMDL
MODEL 5
REMARK VINA RESULT:    -7.730      7.643      9.633
REMARK INTER + INTRA:          -8.117
REMARK INTER:                  -7.833
REMARK INTRA:                  -0.284
REMARK UNBOUND:                 0.065
REMARK SMILES Clc1ncnc2c1cnn2-c1ccccc1
REMARK SMILES IDX 1 1 2 2 7 3 8 4 9 5 10 6 6 7 5 8 4 9 3 10 11 11 12 12 16 13
REMARK SMILES IDX 13 14 15 15 14 16
REMARK H PARENT
ROOT
ATOM      1 Cl   UNL     1     -38.503   2.731  11.087  1.00  0.00    -0.061 Cl
ATOM      2  C   UNL     1     -37.850   4.048  10.241  1.00  0.00    +0.143 A 
ATOM      3  C   UNL     1     -36.668   3.880   9.547  1.00  0.00    +0.077 A 
ATOM      4  C   UNL     1     -35.732   2.875   9.283  1.00  0.00    +0.149 A 
ATOM      5  N   UNL     1     -34.730   3.292   8.510  1.00  0.00    -0.174 NA
ATOM      6  N   UNL     1     -35.008   4.610   8.254  1.00  0.00    -0.215 N 
ATOM      7  C   UNL     1     -36.194   4.999   8.880  1.00  0.00    +0.167 A 
ATOM      8  N   UNL     1     -36.805   6.206   8.871  1.00  0.00    -0.216 NA
ATOM      9  C   UNL     1     -37.942   6.225   9.586  1.00  0.00    +0.226 A 
ATOM     10  N   UNL     1     -38.501   5.217  10.271  1.00  0.00    -0.224 NA
ENDROOT
BRANCH   6  11
ATOM     11  C   UNL     1     -34.117   5.373   7.439  1.00  0.00    +0.067 A 
ATOM     12  C   UNL     1     -34.249   5.429   6.045  1.00  0.00    +0.028 A 
ATOM     13  C   UNL     1     -33.073   6.090   8.050  1.00  0.00    +0.028 A 
ATOM     14  C   UNL     1     -33.354   6.188   5.282  1.00  0.00    +0.002 A 
ATOM     15  C   UNL     1     -32.184   6.846   7.282  1.00  0.00    +0.002 A 
ATOM     16  C   UNL     1     -32.324   6.893   5.899  1.00  0.00    +0.000 A 
ENDBRANCH   6  11
TORSDOF 1
ENDMDL
MODEL 6
REMARK VINA RESULT:    -7.515      4.148      5.621
REMARK INTER + INTRA:          -7.889
REMARK INTER:                  -7.612
REMARK INTRA:                  -0.277
REMARK UNBOUND:                 0.065
REMARK SMILES Clc1ncnc2c1cnn2-c1ccccc1
REMARK SMILES IDX 1 1 2 2 7 3 8 4 9 5 10 6 6 7 5 8 4 9 3 10 11 11 12 12 16 13
REMARK SMILES IDX 13 14 15 15 14 16
REMARK H PARENT
ROOT
ATOM      1 Cl   UNL     1     -34.744   3.818   7.152  1.00  0.00    -0.061 Cl
ATOM      2  C   UNL     1     -34.025   5.184   6.449  1.00  0.00    +0.143 A 
ATOM      3  C   UNL     1     -33.062   5.875   7.158  1.00  0.00    +0.077 A 
ATOM      4  C   UNL     1     -32.414   5.813   8.396  1.00  0.00    +0.149 A 
ATOM      5  N   UNL     1     -31.523   6.789   8.563  1.00  0.00    -0.174 NA
ATOM      6  N   UNL     1     -31.580   7.519   7.403  1.00  0.00    -0.215 N 
ATOM      7  C   UNL     1     -32.519   6.980   6.521  1.00  0.00    +0.167 A 
ATOM      8  N   UNL     1     -32.868   7.405   5.286  1.00  0.00    -0.216 NA
ATOM      9  C   UNL     1     -33.814   6.641   4.714  1.00  0.00    +0.226 A 
ATOM     10  N   UNL     1     -34.414   5.555   5.224  1.00  0.00    -0.224 NA
ENDROOT
BRANCH   6  11
ATOM     11  C   UNL     1     -30.736   8.661   7.247  1.00  0.00    +0.067 A 
ATOM     12  C   UNL     1     -29.372   8.541   6.951  1.00  0.00    +0.028 A 
ATOM     13  C   UNL     1     -31.288   9.946   7.395  1.00  0.00    +0.028 A 
ATOM     14  C   UNL     1     -28.578   9.686   6.807  1.00  0.00    +0.002 A 
ATOM     15  C   UNL     1     -30.489  11.084   7.249  1.00  0.00    +0.002 A 
ATOM     16  C   UNL     1     -29.136  10.953   6.956  1.00  0.00    +0.000 A 
ENDBRANCH   6  11
TORSDOF 1
ENDMDL
MODEL 7
REMARK VINA RESULT:    -7.267      7.591      9.888
REMARK INTER + INTRA:          -7.626
REMARK INTER:                  -7.354
REMARK INTRA:                  -0.273
REMARK UNBOUND:                 0.065
REMARK SMILES Clc1ncnc2c1cnn2-c1ccccc1
REMARK SMILES IDX 1 1 2 2 7 3 8 4 9 5 10 6 6 7 5 8 4 9 3 10 11 11 12 12 16 13
REMARK SMILES IDX 13 14 15 15 14 16
REMARK H PARENT
ROOT
ATOM      1 Cl   UNL     1     -22.949   1.705   9.976  1.00  0.00    -0.061 Cl
ATOM      2  C   UNL     1     -24.324   2.276  10.787  1.00  0.00    +0.143 A 
ATOM      3  C   UNL     1     -25.293   1.374  11.181  1.00  0.00    +0.077 A 
ATOM      4  C   UNL     1     -25.540  -0.002  11.127  1.00  0.00    +0.149 A 
ATOM      5  N   UNL     1     -26.694  -0.343  11.697  1.00  0.00    -0.174 NA
ATOM      6  N   UNL     1     -27.230   0.840  12.143  1.00  0.00    -0.215 N 
ATOM      7  C   UNL     1     -26.389   1.912  11.838  1.00  0.00    +0.167 A 
ATOM      8  N   UNL     1     -26.557   3.227  12.106  1.00  0.00    -0.216 NA
ATOM      9  C   UNL     1     -25.540   3.987  11.666  1.00  0.00    +0.226 A 
ATOM     10  N   UNL     1     -24.433   3.589  11.021  1.00  0.00    -0.224 NA
ENDROOT
BRANCH   6  11
ATOM     11  C   UNL     1     -28.490   0.833  12.814  1.00  0.00    +0.067 A 
ATOM     12  C   UNL     1     -29.697   0.646  12.127  1.00  0.00    +0.028 A 
ATOM     13  C   UNL     1     -28.525   1.022  14.208  1.00  0.00    +0.028 A 
ATOM     14  C   UNL     1     -30.912   0.647  12.823  1.00  0.00    +0.002 A 
ATOM     15  C   UNL     1     -29.742   1.021  14.896  1.00  0.00    +0.002 A 
ATOM     16  C   UNL     1     -30.933   0.835  14.202  1.00  0.00    +0.000 A 
ENDBRANCH   6  11
TORSDOF 1
ENDMDL
MODEL 8
REMARK VINA RESULT:    -7.195      7.838     10.269
REMARK INTER + INTRA:          -7.550
REMARK INTER:                  -7.269
REMARK INTRA:                  -0.281
REMARK UNBOUND:                 0.065
REMARK SMILES Clc1ncnc2c1cnn2-c1ccccc1
REMARK SMILES IDX 1 1 2 2 7 3 8 4 9 5 10 6 6 7 5 8 4 9 3 10 11 11 12 12 16 13
REMARK SMILES IDX 13 14 15 15 14 16
REMARK H PARENT
ROOT
ATOM      1 Cl   UNL     1     -22.974   2.170  11.109  1.00  0.00    -0.061 Cl
ATOM      2  C   UNL     1     -24.662   2.203  11.261  1.00  0.00    +0.143 A 
ATOM      3  C   UNL     1     -25.377   1.038  11.061  1.00  0.00    +0.077 A 
ATOM      4  C   UNL     1     -25.143  -0.303  10.741  1.00  0.00    +0.149 A 
ATOM      5  N   UNL     1     -26.263  -1.022  10.676  1.00  0.00    -0.174 NA
ATOM      6  N   UNL     1     -27.269  -0.133  10.961  1.00  0.00    -0.215 N 
ATOM      7  C   UNL     1     -26.753   1.142  11.201  1.00  0.00    +0.167 A 
ATOM      8  N   UNL     1     -27.411   2.281  11.513  1.00  0.00    -0.216 NA
ATOM      9  C   UNL     1     -26.593   3.334  11.679  1.00  0.00    +0.226 A 
ATOM     10  N   UNL     1     -25.256   3.362  11.571  1.00  0.00    -0.224 NA
ENDROOT
BRANCH   6  11
ATOM     11  C   UNL     1     -28.624  -0.584  10.976  1.00  0.00    +0.067 A 
ATOM     12  C   UNL     1     -29.498  -0.344   9.908  1.00  0.00    +0.028 A 
ATOM     13  C   UNL     1     -29.098  -1.292  12.095  1.00  0.00    +0.028 A 
ATOM     14  C   UNL     1     -30.820  -0.803   9.961  1.00  0.00    +0.002 A 
ATOM     15  C   UNL     1     -30.419  -1.748  12.141  1.00  0.00    +0.002 A 
ATOM     16  C   UNL     1     -31.278  -1.502  11.075  1.00  0.00    +0.000 A 
ENDBRANCH   6  11
TORSDOF 1
ENDMDL
MODEL 9
REMARK VINA RESULT:    -7.049      5.930      7.771
REMARK INTER + INTRA:          -7.396
REMARK INTER:                  -7.156
REMARK INTRA:                  -0.240
REMARK UNBOUND:                 0.065
REMARK SMILES Clc1ncnc2c1cnn2-c1ccccc1
REMARK SMILES IDX 1 1 2 2 7 3 8 4 9 5 10 6 6 7 5 8 4 9 3 10 11 11 12 12 16 13
REMARK SMILES IDX 13 14 15 15 14 16
REMARK H PARENT
ROOT
ATOM      1 Cl   UNL     1     -34.827   1.751  11.403  1.00  0.00    -0.061 Cl
ATOM      2  C   UNL     1     -35.007   3.099  10.391  1.00  0.00    +0.143 A 
ATOM      3  C   UNL     1     -33.887   3.638   9.786  1.00  0.00    +0.077 A 
ATOM      4  C   UNL     1     -32.508   3.415   9.727  1.00  0.00    +0.149 A 
ATOM      5  N   UNL     1     -31.876   4.288   8.945  1.00  0.00    -0.174 NA
ATOM      6  N   UNL     1     -32.863   5.115   8.471  1.00  0.00    -0.215 N 
ATOM      7  C   UNL     1     -34.110   4.738   8.973  1.00  0.00    +0.167 A 
ATOM      8  N   UNL     1     -35.322   5.295   8.745  1.00  0.00    -0.216 NA
ATOM      9  C   UNL     1     -36.318   4.670   9.396  1.00  0.00    +0.226 A 
ATOM     10  N   UNL     1     -36.232   3.605  10.206  1.00  0.00    -0.224 NA
ENDROOT
BRANCH   6  11
ATOM     11  C   UNL     1     -32.522   6.184   7.587  1.00  0.00    +0.067 A 
ATOM     12  C   UNL     1     -33.017   6.252   6.278  1.00  0.00    +0.028 A 
ATOM     13  C   UNL     1     -31.664   7.201   8.041  1.00  0.00    +0.028 A 
ATOM     14  C   UNL     1     -32.659   7.317   5.443  1.00  0.00    +0.002 A 
ATOM     15  C   UNL     1     -31.311   8.261   7.202  1.00  0.00    +0.002 A 
ATOM     16  C   UNL     1     -31.808   8.317   5.904  1.00  0.00    +0.000 A 
ENDBRANCH   6  11
TORSDOF 1
ENDMDL
