REMARK SMILES O=C(O)c1cc2ccccc2c2ccccc12
REMARK SMILES IDX 2 1 1 2 3 3 4 5 17 6 5 7 16 8 12 9 6 10 15 11 13 12 11 13
REMARK SMILES IDX 7 14 14 15 10 16 8 17 9 18
REMARK H PARENT 3 4
ROOT
ATOM      1  C   UNL     1      -2.111   2.352   0.259  1.00  0.00    +0.336 C 
ATOM      2  O   UNL     1      -3.222   2.215   0.730  1.00  0.00    -0.246 OA
ENDROOT
BRANCH   1   3
ATOM      3  O   UNL     1      -1.717   3.538  -0.245  1.00  0.00    -0.478 OA
ATOM      4  H   UNL     1      -2.500   4.115  -0.124  1.00  0.00    +0.297 HD
ENDBRANCH   1   3
BRANCH   1   5
ATOM      5  C   UNL     1      -1.042   1.324   0.133  1.00  0.00    +0.068 A 
ATOM      6  C   UNL     1      -1.332  -0.033  -0.154  1.00  0.00    -0.003 A 
ATOM      7  C   UNL     1       0.276   1.749   0.344  1.00  0.00    +0.025 A 
ATOM      8  C   UNL     1      -2.647  -0.509  -0.396  1.00  0.00    +0.009 A 
ATOM      9  C   UNL     1      -0.251  -0.960  -0.221  1.00  0.00    -0.010 A 
ATOM     10  C   UNL     1       1.344   0.856   0.280  1.00  0.00    -0.017 A 
ATOM     11  C   UNL     1      -2.917  -1.846  -0.679  1.00  0.00    +0.001 A 
ATOM     12  C   UNL     1      -0.570  -2.313  -0.511  1.00  0.00    +0.009 A 
ATOM     13  C   UNL     1       1.103  -0.511  -0.000  1.00  0.00    -0.010 A 
ATOM     14  C   UNL     1       2.649   1.329   0.498  1.00  0.00    +0.009 A 
ATOM     15  C   UNL     1      -1.875  -2.751  -0.735  1.00  0.00    +0.001 A 
ATOM     16  C   UNL     1       2.247  -1.351  -0.044  1.00  0.00    +0.009 A 
ATOM     17  C   UNL     1       3.744   0.472   0.447  1.00  0.00    +0.001 A 
ATOM     18  C   UNL     1       3.543  -0.871   0.175  1.00  0.00    +0.001 A 
ENDBRANCH   1   5
TORSDOF 2
