REMARK SMILES COC(=O)c1cc2ccccc2c([N+](=O)[O-])c1O
REMARK SMILES IDX 5 1 17 2 13 3 12 4 11 5 10 6 9 7 8 8 7 9 6 10 3 11 4 12 2 13
REMARK SMILES IDX 1 14 18 15 14 17 15 18 16 19
REMARK H PARENT 18 16
ROOT
ATOM      1  C   UNL     1       1.046   0.277   0.248  1.00  0.00    +0.109 A 
ATOM      2  C   UNL     1       0.783  -0.760  -0.653  1.00  0.00    +0.209 A 
ATOM      3  C   UNL     1      -0.552  -1.052  -0.974  1.00  0.00    +0.319 A 
ATOM      4  C   UNL     1      -1.660  -0.349  -0.432  1.00  0.00    +0.064 A 
ATOM      5  C   UNL     1      -3.023  -0.612  -0.729  1.00  0.00    +0.016 A 
ATOM      6  C   UNL     1      -4.052   0.131  -0.148  1.00  0.00    +0.001 A 
ATOM      7  C   UNL     1      -3.749   1.152   0.742  1.00  0.00    +0.001 A 
ATOM      8  C   UNL     1      -2.419   1.431   1.051  1.00  0.00    +0.009 A 
ATOM      9  C   UNL     1      -1.371   0.694   0.475  1.00  0.00    -0.010 A 
ATOM     10  C   UNL     1      -0.035   0.990   0.800  1.00  0.00    +0.028 A 
ENDROOT
BRANCH   1  11
ATOM     11  C   UNL     1       2.407   0.704   0.684  1.00  0.00    +0.341 C 
ATOM     12  O   UNL     1       2.608   1.613   1.473  1.00  0.00    -0.246 OA
BRANCH  11  13
ATOM     13  O   UNL     1       3.369  -0.050   0.091  1.00  0.00    -0.465 OA
ATOM     14  C   UNL     1       4.702   0.312   0.471  1.00  0.00    +0.282 C 
ENDBRANCH  11  13
ENDBRANCH   1  11
BRANCH   2  15
ATOM     15  O   UNL     1       1.767  -1.509  -1.241  1.00  0.00    -0.501 OA
ATOM     16  H   UNL     1       2.644  -1.203  -0.933  1.00  0.00    +0.293 HD
ENDBRANCH   2  15
BRANCH   3  17
ATOM     17  N   UNL     1      -0.800  -2.128  -1.907  1.00  0.00    +0.067 N 
ATOM     18  O   UNL     1      -0.967  -3.259  -1.429  1.00  0.00    -0.258 OA
ATOM     19  O   UNL     1      -0.878  -1.826  -3.106  1.00  0.00    -0.258 OA
ENDBRANCH   3  17
TORSDOF 4
