REMARK SMILES O=C(Oc1ccccc1)c1ccc2ccccc2c1O
REMARK SMILES IDX 19 1 18 2 17 3 16 4 15 5 14 6 13 7 12 8 11 9 10 10 20 11
REMARK SMILES IDX 2 13 1 14 3 15 4 16 5 17 9 18 6 19 8 20 7 21
REMARK H PARENT 20 12
ROOT
ATOM      1  C   UNL     1      -1.214  -0.041  -0.662  1.00  0.00    +0.137 A 
ATOM      2  C   UNL     1      -2.597   0.268  -0.593  1.00  0.00    +0.024 A 
ATOM      3  C   UNL     1      -3.376   0.675  -1.702  1.00  0.00    +0.012 A 
ATOM      4  C   UNL     1      -4.734   0.976  -1.571  1.00  0.00    +0.001 A 
ATOM      5  C   UNL     1      -5.351   0.869  -0.332  1.00  0.00    +0.001 A 
ATOM      6  C   UNL     1      -4.615   0.450   0.774  1.00  0.00    +0.009 A 
ATOM      7  C   UNL     1      -3.250   0.141   0.660  1.00  0.00    -0.015 A 
ATOM      8  C   UNL     1      -2.536  -0.308   1.782  1.00  0.00    +0.010 A 
ATOM      9  C   UNL     1      -1.183  -0.631   1.687  1.00  0.00    +0.020 A 
ATOM     10  C   UNL     1      -0.515  -0.484   0.469  1.00  0.00    +0.102 A 
ENDROOT
BRANCH   1  11
ATOM     11  O   UNL     1      -0.533   0.060  -1.851  1.00  0.00    -0.506 OA
ATOM     12  H   UNL     1      -0.904   0.801  -2.357  1.00  0.00    +0.293 HD
ENDBRANCH   1  11
BRANCH  10  13
ATOM     13  C   UNL     1       0.925  -0.822   0.446  1.00  0.00    +0.347 C 
ATOM     14  O   UNL     1       1.382  -1.803   1.014  1.00  0.00    -0.246 OA
BRANCH  13  15
ATOM     15  O   UNL     1       1.612   0.191  -0.195  1.00  0.00    -0.423 OA
BRANCH  15  16
ATOM     16  C   UNL     1       2.987  -0.033  -0.271  1.00  0.00    +0.131 A 
ATOM     17  C   UNL     1       3.498  -0.930  -1.209  1.00  0.00    +0.047 A 
ATOM     18  C   UNL     1       3.830   0.720   0.544  1.00  0.00    +0.047 A 
ATOM     19  C   UNL     1       4.878  -1.100  -1.306  1.00  0.00    +0.004 A 
ATOM     20  C   UNL     1       5.209   0.546   0.441  1.00  0.00    +0.004 A 
ATOM     21  C   UNL     1       5.732  -0.365  -0.481  1.00  0.00    +0.000 A 
ENDBRANCH  15  16
ENDBRANCH  13  15
ENDBRANCH  10  13
TORSDOF 4
