MODEL 1
REMARK VINA RESULT:    -9.266      0.000      0.000
REMARK INTER + INTRA:          -9.266
REMARK INTER:                  -9.266
REMARK INTRA:                   0.000
REMARK UNBOUND:                 0.000
REMARK SMILES C[n+]1cc2ccccc2c2ccccc21
REMARK SMILES IDX 1 1 2 2 15 3 14 4 13 5 12 6 11 7 10 8 9 9 8 10 7 11 6 12
REMARK SMILES IDX 5 13 4 14 3 15
REMARK H PARENT
ROOT
ATOM      1  C   UNL     1     -30.800   9.759   7.318  1.00  0.00    +0.440 C 
ATOM      2  N   UNL     1     -29.360   9.628   7.008  1.00  0.00    -0.200 N 
ATOM      3  C   UNL     1     -28.676  10.634   6.384  1.00  0.00    +0.212 A 
ATOM      4  C   UNL     1     -29.312  11.841   6.012  1.00  0.00    +0.080 A 
ATOM      5  C   UNL     1     -28.614  12.867   5.377  1.00  0.00    +0.007 A 
ATOM      6  C   UNL     1     -27.268  12.710   5.102  1.00  0.00    +0.001 A 
ATOM      7  C   UNL     1     -26.617  11.529   5.460  1.00  0.00    +0.016 A 
ATOM      8  C   UNL     1     -27.289  10.461   6.106  1.00  0.00    +0.054 A 
ATOM      9  C   UNL     1     -26.640   9.243   6.482  1.00  0.00    +0.002 A 
ATOM     10  C   UNL     1     -25.270   8.952   6.259  1.00  0.00    +0.010 A 
ATOM     11  C   UNL     1     -24.693   7.740   6.650  1.00  0.00    +0.001 A 
ATOM     12  C   UNL     1     -25.467   6.777   7.277  1.00  0.00    +0.001 A 
ATOM     13  C   UNL     1     -26.815   7.027   7.511  1.00  0.00    +0.015 A 
ATOM     14  C   UNL     1     -27.401   8.246   7.120  1.00  0.00    +0.046 A 
ATOM     15  C   UNL     1     -28.747   8.477   7.361  1.00  0.00    +0.317 A 
ENDROOT
TORSDOF 0
ENDMDL
MODEL 2
REMARK VINA RESULT:    -9.115      0.637      4.332
REMARK INTER + INTRA:          -9.115
REMARK INTER:                  -9.115
REMARK INTRA:                   0.000
REMARK UNBOUND:                 0.000
REMARK SMILES C[n+]1cc2ccccc2c2ccccc21
REMARK SMILES IDX 1 1 2 2 15 3 14 4 13 5 12 6 11 7 10 8 9 9 8 10 7 11 6 12
REMARK SMILES IDX 5 13 4 14 3 15
REMARK H PARENT
ROOT
ATOM      1  C   UNL     1     -29.511   7.363   8.063  1.00  0.00    +0.440 C 
ATOM      2  N   UNL     1     -28.705   8.405   7.390  1.00  0.00    -0.200 N 
ATOM      3  C   UNL     1     -27.376   8.212   7.129  1.00  0.00    +0.212 A 
ATOM      4  C   UNL     1     -26.718   7.014   7.488  1.00  0.00    +0.080 A 
ATOM      5  C   UNL     1     -25.364   6.818   7.222  1.00  0.00    +0.007 A 
ATOM      6  C   UNL     1     -24.640   7.814   6.591  1.00  0.00    +0.001 A 
ATOM      7  C   UNL     1     -25.268   9.006   6.226  1.00  0.00    +0.016 A 
ATOM      8  C   UNL     1     -26.641   9.246   6.479  1.00  0.00    +0.054 A 
ATOM      9  C   UNL     1     -27.303  10.459   6.112  1.00  0.00    +0.002 A 
ATOM     10  C   UNL     1     -26.682  11.557   5.463  1.00  0.00    +0.010 A 
ATOM     11  C   UNL     1     -27.384  12.720   5.131  1.00  0.00    +0.001 A 
ATOM     12  C   UNL     1     -28.732  12.824   5.436  1.00  0.00    +0.001 A 
ATOM     13  C   UNL     1     -29.374  11.768   6.073  1.00  0.00    +0.015 A 
ATOM     14  C   UNL     1     -28.672  10.595   6.410  1.00  0.00    +0.046 A 
ATOM     15  C   UNL     1     -29.329   9.551   7.045  1.00  0.00    +0.317 A 
ENDROOT
TORSDOF 0
ENDMDL
MODEL 3
REMARK VINA RESULT:    -9.060      1.181      2.918
REMARK INTER + INTRA:          -9.060
REMARK INTER:                  -9.060
REMARK INTRA:                   0.000
REMARK UNBOUND:                 0.000
REMARK SMILES C[n+]1cc2ccccc2c2ccccc21
REMARK SMILES IDX 1 1 2 2 15 3 14 4 13 5 12 6 11 7 10 8 9 9 8 10 7 11 6 12
REMARK SMILES IDX 5 13 4 14 3 15
REMARK H PARENT
ROOT
ATOM      1  C   UNL     1     -26.152  11.837   5.054  1.00  0.00    +0.440 C 
ATOM      2  N   UNL     1     -26.740  10.700   5.797  1.00  0.00    -0.200 N 
ATOM      3  C   UNL     1     -28.047  10.718   6.199  1.00  0.00    +0.212 A 
ATOM      4  C   UNL     1     -28.891  11.818   5.922  1.00  0.00    +0.080 A 
ATOM      5  C   UNL     1     -30.223  11.836   6.331  1.00  0.00    +0.007 A 
ATOM      6  C   UNL     1     -30.740  10.756   7.025  1.00  0.00    +0.001 A 
ATOM      7  C   UNL     1     -29.927   9.658   7.310  1.00  0.00    +0.016 A 
ATOM      8  C   UNL     1     -28.568   9.600   6.913  1.00  0.00    +0.054 A 
ATOM      9  C   UNL     1     -27.719   8.485   7.195  1.00  0.00    +0.002 A 
ATOM     10  C   UNL     1     -28.119   7.318   7.895  1.00  0.00    +0.010 A 
ATOM     11  C   UNL     1     -27.239   6.259   8.141  1.00  0.00    +0.001 A 
ATOM     12  C   UNL     1     -25.930   6.331   7.694  1.00  0.00    +0.001 A 
ATOM     13  C   UNL     1     -25.502   7.460   7.005  1.00  0.00    +0.015 A 
ATOM     14  C   UNL     1     -26.383   8.529   6.754  1.00  0.00    +0.046 A 
ATOM     15  C   UNL     1     -25.938   9.647   6.065  1.00  0.00    +0.317 A 
ENDROOT
TORSDOF 0
ENDMDL
MODEL 4
REMARK VINA RESULT:    -8.852      1.179      3.828
REMARK INTER + INTRA:          -8.852
REMARK INTER:                  -8.852
REMARK INTRA:                   0.000
REMARK UNBOUND:                 0.000
REMARK SMILES C[n+]1cc2ccccc2c2ccccc21
REMARK SMILES IDX 1 1 2 2 15 3 14 4 13 5 12 6 11 7 10 8 9 9 8 10 7 11 6 12
REMARK SMILES IDX 5 13 4 14 3 15
REMARK H PARENT
ROOT
ATOM      1  C   UNL     1     -25.799   8.784   6.124  1.00  0.00    +0.440 C 
ATOM      2  N   UNL     1     -27.194   9.237   6.317  1.00  0.00    -0.200 N 
ATOM      3  C   UNL     1     -27.576  10.510   5.993  1.00  0.00    +0.212 A 
ATOM      4  C   UNL     1     -26.658  11.444   5.461  1.00  0.00    +0.080 A 
ATOM      5  C   UNL     1     -27.047  12.741   5.131  1.00  0.00    +0.007 A 
ATOM      6  C   UNL     1     -28.360  13.132   5.325  1.00  0.00    +0.001 A 
ATOM      7  C   UNL     1     -29.285  12.227   5.848  1.00  0.00    +0.016 A 
ATOM      8  C   UNL     1     -28.931  10.900   6.197  1.00  0.00    +0.054 A 
ATOM      9  C   UNL     1     -29.863   9.958   6.734  1.00  0.00    +0.002 A 
ATOM     10  C   UNL     1     -31.234  10.226   6.982  1.00  0.00    +0.010 A 
ATOM     11  C   UNL     1     -32.097   9.261   7.511  1.00  0.00    +0.001 A 
ATOM     12  C   UNL     1     -31.620   7.995   7.809  1.00  0.00    +0.001 A 
ATOM     13  C   UNL     1     -30.281   7.697   7.579  1.00  0.00    +0.015 A 
ATOM     14  C   UNL     1     -29.407   8.664   7.047  1.00  0.00    +0.046 A 
ATOM     15  C   UNL     1     -28.075   8.348   6.825  1.00  0.00    +0.317 A 
ENDROOT
TORSDOF 0
ENDMDL
MODEL 5
REMARK VINA RESULT:    -8.842      1.346      5.124
REMARK INTER + INTRA:          -8.842
REMARK INTER:                  -8.842
REMARK INTRA:                   0.000
REMARK UNBOUND:                 0.000
REMARK SMILES C[n+]1cc2ccccc2c2ccccc21
REMARK SMILES IDX 1 1 2 2 15 3 14 4 13 5 12 6 11 7 10 8 9 9 8 10 7 11 6 12
REMARK SMILES IDX 5 13 4 14 3 15
REMARK H PARENT
ROOT
ATOM      1  C   UNL     1     -24.287   8.206   6.204  1.00  0.00    +0.440 C 
ATOM      2  N   UNL     1     -25.611   8.856   6.321  1.00  0.00    -0.200 N 
ATOM      3  C   UNL     1     -26.652   8.232   6.950  1.00  0.00    +0.212 A 
ATOM      4  C   UNL     1     -26.510   6.944   7.516  1.00  0.00    +0.080 A 
ATOM      5  C   UNL     1     -27.571   6.308   8.158  1.00  0.00    +0.007 A 
ATOM      6  C   UNL     1     -28.796   6.945   8.249  1.00  0.00    +0.001 A 
ATOM      7  C   UNL     1     -28.961   8.217   7.699  1.00  0.00    +0.016 A 
ATOM      8  C   UNL     1     -27.909   8.898   7.038  1.00  0.00    +0.054 A 
ATOM      9  C   UNL     1     -28.058  10.201   6.469  1.00  0.00    +0.002 A 
ATOM     10  C   UNL     1     -29.254  10.964   6.490  1.00  0.00    +0.010 A 
ATOM     11  C   UNL     1     -29.337  12.235   5.914  1.00  0.00    +0.001 A 
ATOM     12  C   UNL     1     -28.227  12.788   5.296  1.00  0.00    +0.001 A 
ATOM     13  C   UNL     1     -27.037  12.069   5.255  1.00  0.00    +0.015 A 
ATOM     14  C   UNL     1     -26.948  10.788   5.834  1.00  0.00    +0.046 A 
ATOM     15  C   UNL     1     -25.753  10.086   5.782  1.00  0.00    +0.317 A 
ENDROOT
TORSDOF 0
ENDMDL
MODEL 6
REMARK VINA RESULT:    -7.603      1.556      4.311
REMARK INTER + INTRA:          -7.603
REMARK INTER:                  -7.603
REMARK INTRA:                   0.000
REMARK UNBOUND:                 0.000
REMARK SMILES C[n+]1cc2ccccc2c2ccccc21
REMARK SMILES IDX 1 1 2 2 15 3 14 4 13 5 12 6 11 7 10 8 9 9 8 10 7 11 6 12
REMARK SMILES IDX 5 13 4 14 3 15
REMARK H PARENT
ROOT
ATOM      1  C   UNL     1     -27.199   6.035   8.178  1.00  0.00    +0.440 C 
ATOM      2  N   UNL     1     -27.833   7.293   7.726  1.00  0.00    -0.200 N 
ATOM      3  C   UNL     1     -27.094   8.292   7.156  1.00  0.00    +0.212 A 
ATOM      4  C   UNL     1     -25.697   8.167   6.972  1.00  0.00    +0.080 A 
ATOM      5  C   UNL     1     -24.944   9.185   6.390  1.00  0.00    +0.007 A 
ATOM      6  C   UNL     1     -25.570  10.349   5.979  1.00  0.00    +0.001 A 
ATOM      7  C   UNL     1     -26.947  10.496   6.149  1.00  0.00    +0.016 A 
ATOM      8  C   UNL     1     -27.749   9.486   6.737  1.00  0.00    +0.054 A 
ATOM      9  C   UNL     1     -29.161   9.618   6.919  1.00  0.00    +0.002 A 
ATOM     10  C   UNL     1     -29.925  10.753   6.545  1.00  0.00    +0.010 A 
ATOM     11  C   UNL     1     -31.306  10.822   6.752  1.00  0.00    +0.001 A 
ATOM     12  C   UNL     1     -31.971   9.758   7.339  1.00  0.00    +0.001 A 
ATOM     13  C   UNL     1     -31.255   8.628   7.719  1.00  0.00    +0.015 A 
ATOM     14  C   UNL     1     -29.864   8.553   7.514  1.00  0.00    +0.046 A 
ATOM     15  C   UNL     1     -29.166   7.418   7.900  1.00  0.00    +0.317 A 
ENDROOT
TORSDOF 0
ENDMDL
MODEL 7
REMARK VINA RESULT:    -7.418      1.413      3.937
REMARK INTER + INTRA:          -7.418
REMARK INTER:                  -7.418
REMARK INTRA:                   0.000
REMARK UNBOUND:                 0.000
REMARK SMILES C[n+]1cc2ccccc2c2ccccc21
REMARK SMILES IDX 1 1 2 2 15 3 14 4 13 5 12 6 11 7 10 8 9 9 8 10 7 11 6 12
REMARK SMILES IDX 5 13 4 14 3 15
REMARK H PARENT
ROOT
ATOM      1  C   UNL     1     -29.275  12.266   5.810  1.00  0.00    +0.440 C 
ATOM      2  N   UNL     1     -29.228  10.889   6.351  1.00  0.00    -0.200 N 
ATOM      3  C   UNL     1     -28.048  10.204   6.439  1.00  0.00    +0.212 A 
ATOM      4  C   UNL     1     -26.825  10.778   6.021  1.00  0.00    +0.080 A 
ATOM      5  C   UNL     1     -25.623  10.080   6.112  1.00  0.00    +0.007 A 
ATOM      6  C   UNL     1     -25.616   8.794   6.622  1.00  0.00    +0.001 A 
ATOM      7  C   UNL     1     -26.809   8.205   7.043  1.00  0.00    +0.016 A 
ATOM      8  C   UNL     1     -28.053   8.880   6.967  1.00  0.00    +0.054 A 
ATOM      9  C   UNL     1     -29.286   8.295   7.393  1.00  0.00    +0.002 A 
ATOM     10  C   UNL     1     -29.421   6.990   7.933  1.00  0.00    +0.010 A 
ATOM     11  C   UNL     1     -30.658   6.473   8.331  1.00  0.00    +0.001 A 
ATOM     12  C   UNL     1     -31.802   7.243   8.202  1.00  0.00    +0.001 A 
ATOM     13  C   UNL     1     -31.709   8.527   7.676  1.00  0.00    +0.015 A 
ATOM     14  C   UNL     1     -30.466   9.053   7.274  1.00  0.00    +0.046 A 
ATOM     15  C   UNL     1     -30.392  10.336   6.751  1.00  0.00    +0.317 A 
ENDROOT
TORSDOF 0
ENDMDL
MODEL 8
REMARK VINA RESULT:    -7.110      7.647     10.530
REMARK INTER + INTRA:          -7.110
REMARK INTER:                  -7.110
REMARK INTRA:                   0.000
REMARK UNBOUND:                 0.000
REMARK SMILES C[n+]1cc2ccccc2c2ccccc21
REMARK SMILES IDX 1 1 2 2 15 3 14 4 13 5 12 6 11 7 10 8 9 9 8 10 7 11 6 12
REMARK SMILES IDX 5 13 4 14 3 15
REMARK H PARENT
ROOT
ATOM      1  C   UNL     1     -32.901   2.852  10.596  1.00  0.00    +0.440 C 
ATOM      2  N   UNL     1     -34.090   3.598  10.128  1.00  0.00    -0.200 N 
ATOM      3  C   UNL     1     -33.978   4.600   9.204  1.00  0.00    +0.212 A 
ATOM      4  C   UNL     1     -32.727   4.964   8.656  1.00  0.00    +0.080 A 
ATOM      5  C   UNL     1     -32.613   5.984   7.714  1.00  0.00    +0.007 A 
ATOM      6  C   UNL     1     -33.745   6.662   7.299  1.00  0.00    +0.001 A 
ATOM      7  C   UNL     1     -34.992   6.320   7.824  1.00  0.00    +0.016 A 
ATOM      8  C   UNL     1     -35.152   5.290   8.784  1.00  0.00    +0.054 A 
ATOM      9  C   UNL     1     -36.420   4.925   9.335  1.00  0.00    +0.002 A 
ATOM     10  C   UNL     1     -37.656   5.535   8.999  1.00  0.00    +0.010 A 
ATOM     11  C   UNL     1     -38.866   5.133   9.573  1.00  0.00    +0.001 A 
ATOM     12  C   UNL     1     -38.881   4.107  10.504  1.00  0.00    +0.001 A 
ATOM     13  C   UNL     1     -37.688   3.485  10.858  1.00  0.00    +0.015 A 
ATOM     14  C   UNL     1     -36.468   3.886  10.283  1.00  0.00    +0.046 A 
ATOM     15  C   UNL     1     -35.288   3.255  10.649  1.00  0.00    +0.317 A 
ENDROOT
TORSDOF 0
ENDMDL
MODEL 9
REMARK VINA RESULT:    -7.026      8.340     10.523
REMARK INTER + INTRA:          -7.026
REMARK INTER:                  -7.026
REMARK INTRA:                   0.000
REMARK UNBOUND:                 0.000
REMARK SMILES C[n+]1cc2ccccc2c2ccccc21
REMARK SMILES IDX 1 1 2 2 15 3 14 4 13 5 12 6 11 7 10 8 9 9 8 10 7 11 6 12
REMARK SMILES IDX 5 13 4 14 3 15
REMARK H PARENT
ROOT
ATOM      1  C   UNL     1     -34.781   6.403   7.586  1.00  0.00    +0.440 C 
ATOM      2  N   UNL     1     -34.816   5.326   8.600  1.00  0.00    -0.200 N 
ATOM      3  C   UNL     1     -35.941   5.087   9.340  1.00  0.00    +0.212 A 
ATOM      4  C   UNL     1     -37.116   5.854   9.167  1.00  0.00    +0.080 A 
ATOM      5  C   UNL     1     -38.263   5.610   9.921  1.00  0.00    +0.007 A 
ATOM      6  C   UNL     1     -38.261   4.595  10.861  1.00  0.00    +0.001 A 
ATOM      7  C   UNL     1     -37.113   3.823  11.049  1.00  0.00    +0.016 A 
ATOM      8  C   UNL     1     -35.927   4.039  10.305  1.00  0.00    +0.054 A 
ATOM      9  C   UNL     1     -34.741   3.258  10.482  1.00  0.00    +0.002 A 
ATOM     10  C   UNL     1     -34.603   2.192  11.407  1.00  0.00    +0.010 A 
ATOM     11  C   UNL     1     -33.415   1.466  11.534  1.00  0.00    +0.001 A 
ATOM     12  C   UNL     1     -32.324   1.782  10.740  1.00  0.00    +0.001 A 
ATOM     13  C   UNL     1     -32.423   2.822   9.822  1.00  0.00    +0.015 A 
ATOM     14  C   UNL     1     -33.617   3.556   9.690  1.00  0.00    +0.046 A 
ATOM     15  C   UNL     1     -33.696   4.590   8.769  1.00  0.00    +0.317 A 
ENDROOT
TORSDOF 0
ENDMDL
