MODEL 1
REMARK VINA RESULT:    -9.712      0.000      0.000
REMARK INTER + INTRA:         -10.355
REMARK INTER:                 -10.280
REMARK INTRA:                  -0.075
REMARK UNBOUND:                -0.075
REMARK SMILES O=Cc1cc2ccccc2c2ccccc12
REMARK SMILES IDX 3 1 16 2 15 3 14 4 13 5 12 6 11 7 10 8 9 9 8 10 7 11 6 12
REMARK SMILES IDX 5 13 4 14 2 15 1 16
REMARK H PARENT
ROOT
ATOM      1  C   UNL     1     -29.401   9.577   6.981  1.00  0.00    +0.023 A 
ATOM      2  C   UNL     1     -28.714  10.653   6.364  1.00  0.00    -0.007 A 
ATOM      3  C   UNL     1     -29.343  11.872   5.986  1.00  0.00    +0.009 A 
ATOM      4  C   UNL     1     -28.644  12.915   5.380  1.00  0.00    +0.001 A 
ATOM      5  C   UNL     1     -27.293  12.774   5.133  1.00  0.00    +0.001 A 
ATOM      6  C   UNL     1     -26.648  11.592   5.491  1.00  0.00    +0.009 A 
ATOM      7  C   UNL     1     -27.319  10.504   6.110  1.00  0.00    -0.010 A 
ATOM      8  C   UNL     1     -26.639   9.285   6.477  1.00  0.00    -0.010 A 
ATOM      9  C   UNL     1     -25.256   9.036   6.267  1.00  0.00    +0.009 A 
ATOM     10  C   UNL     1     -24.640   7.838   6.640  1.00  0.00    +0.001 A 
ATOM     11  C   UNL     1     -25.386   6.836   7.238  1.00  0.00    +0.001 A 
ATOM     12  C   UNL     1     -26.745   7.038   7.461  1.00  0.00    +0.009 A 
ATOM     13  C   UNL     1     -27.371   8.240   7.090  1.00  0.00    -0.017 A 
ATOM     14  C   UNL     1     -28.734   8.399   7.333  1.00  0.00    +0.021 A 
ENDROOT
BRANCH   1  15
ATOM     15  C   UNL     1     -30.854   9.622   7.293  1.00  0.00    +0.260 C 
ATOM     16  O   UNL     1     -31.705   9.199   6.516  1.00  0.00    -0.298 OA
ENDBRANCH   1  15
TORSDOF 1
ENDMDL
MODEL 2
REMARK VINA RESULT:    -9.592      1.883      3.353
REMARK INTER + INTRA:         -10.227
REMARK INTER:                 -10.152
REMARK INTRA:                  -0.075
REMARK UNBOUND:                -0.075
REMARK SMILES O=Cc1cc2ccccc2c2ccccc12
REMARK SMILES IDX 3 1 16 2 15 3 14 4 13 5 12 6 11 7 10 8 9 9 8 10 7 11 6 12
REMARK SMILES IDX 5 13 4 14 2 15 1 16
REMARK H PARENT
ROOT
ATOM      1  C   UNL     1     -26.818  10.587   5.895  1.00  0.00    +0.023 A 
ATOM      2  C   UNL     1     -28.174  10.653   6.307  1.00  0.00    -0.007 A 
ATOM      3  C   UNL     1     -29.025  11.759   6.032  1.00  0.00    +0.009 A 
ATOM      4  C   UNL     1     -30.354  11.799   6.450  1.00  0.00    +0.001 A 
ATOM      5  C   UNL     1     -30.877  10.734   7.156  1.00  0.00    +0.001 A 
ATOM      6  C   UNL     1     -30.068   9.635   7.442  1.00  0.00    +0.009 A 
ATOM      7  C   UNL     1     -28.710   9.551   7.037  1.00  0.00    -0.010 A 
ATOM      8  C   UNL     1     -27.883   8.407   7.338  1.00  0.00    -0.010 A 
ATOM      9  C   UNL     1     -28.319   7.262   8.058  1.00  0.00    +0.009 A 
ATOM     10  C   UNL     1     -27.480   6.176   8.326  1.00  0.00    +0.001 A 
ATOM     11  C   UNL     1     -26.168   6.193   7.886  1.00  0.00    +0.001 A 
ATOM     12  C   UNL     1     -25.699   7.296   7.178  1.00  0.00    +0.009 A 
ATOM     13  C   UNL     1     -26.536   8.391   6.904  1.00  0.00    -0.017 A 
ATOM     14  C   UNL     1     -26.025   9.474   6.192  1.00  0.00    +0.021 A 
ENDROOT
BRANCH   1  15
ATOM     15  C   UNL     1     -26.156  11.676   5.130  1.00  0.00    +0.260 C 
ATOM     16  O   UNL     1     -26.084  11.666   3.905  1.00  0.00    -0.298 OA
ENDBRANCH   1  15
TORSDOF 1
ENDMDL
MODEL 3
REMARK VINA RESULT:    -9.464      0.751      4.261
REMARK INTER + INTRA:         -10.092
REMARK INTER:                 -10.034
REMARK INTRA:                  -0.059
REMARK UNBOUND:                -0.075
REMARK SMILES O=Cc1cc2ccccc2c2ccccc12
REMARK SMILES IDX 3 1 16 2 15 3 14 4 13 5 12 6 11 7 10 8 9 9 8 10 7 11 6 12
REMARK SMILES IDX 5 13 4 14 2 15 1 16
REMARK H PARENT
ROOT
ATOM      1  C   UNL     1     -28.715   8.372   7.400  1.00  0.00    +0.023 A 
ATOM      2  C   UNL     1     -27.340   8.171   7.118  1.00  0.00    -0.007 A 
ATOM      3  C   UNL     1     -26.637   6.981   7.453  1.00  0.00    +0.009 A 
ATOM      4  C   UNL     1     -25.284   6.808   7.165  1.00  0.00    +0.001 A 
ATOM      5  C   UNL     1     -24.589   7.820   6.532  1.00  0.00    +0.001 A 
ATOM      6  C   UNL     1     -25.250   8.999   6.191  1.00  0.00    +0.009 A 
ATOM      7  C   UNL     1     -26.626   9.218   6.464  1.00  0.00    -0.010 A 
ATOM      8  C   UNL     1     -27.300  10.443   6.105  1.00  0.00    -0.010 A 
ATOM      9  C   UNL     1     -26.681  11.545   5.454  1.00  0.00    +0.009 A 
ATOM     10  C   UNL     1     -27.375  12.713   5.126  1.00  0.00    +0.001 A 
ATOM     11  C   UNL     1     -28.719  12.827   5.438  1.00  0.00    +0.001 A 
ATOM     12  C   UNL     1     -29.364  11.773   6.076  1.00  0.00    +0.009 A 
ATOM     13  C   UNL     1     -28.673  10.595   6.410  1.00  0.00    -0.017 A 
ATOM     14  C   UNL     1     -29.359   9.563   7.048  1.00  0.00    +0.021 A 
ENDROOT
BRANCH   1  15
ATOM     15  C   UNL     1     -29.557   7.351   8.076  1.00  0.00    +0.260 C 
ATOM     16  O   UNL     1     -30.751   7.214   7.825  1.00  0.00    -0.298 OA
ENDBRANCH   1  15
TORSDOF 1
ENDMDL
MODEL 4
REMARK VINA RESULT:    -8.908      1.482      3.539
REMARK INTER + INTRA:          -9.504
REMARK INTER:                  -9.445
REMARK INTRA:                  -0.059
REMARK UNBOUND:                -0.075
REMARK SMILES O=Cc1cc2ccccc2c2ccccc12
REMARK SMILES IDX 3 1 16 2 15 3 14 4 13 5 12 6 11 7 10 8 9 9 8 10 7 11 6 12
REMARK SMILES IDX 5 13 4 14 2 15 1 16
REMARK H PARENT
ROOT
ATOM      1  C   UNL     1     -28.776  10.742   6.467  1.00  0.00    +0.023 A 
ATOM      2  C   UNL     1     -29.716   9.766   6.884  1.00  0.00    -0.007 A 
ATOM      3  C   UNL     1     -31.116  10.007   6.958  1.00  0.00    +0.009 A 
ATOM      4  C   UNL     1     -32.020   9.030   7.373  1.00  0.00    +0.001 A 
ATOM      5  C   UNL     1     -31.553   7.779   7.726  1.00  0.00    +0.001 A 
ATOM      6  C   UNL     1     -30.186   7.512   7.664  1.00  0.00    +0.009 A 
ATOM      7  C   UNL     1     -29.231   8.476   7.249  1.00  0.00    -0.010 A 
ATOM      8  C   UNL     1     -27.818   8.187   7.188  1.00  0.00    -0.010 A 
ATOM      9  C   UNL     1     -27.233   6.937   7.530  1.00  0.00    +0.009 A 
ATOM     10  C   UNL     1     -25.857   6.704   7.455  1.00  0.00    +0.001 A 
ATOM     11  C   UNL     1     -25.008   7.714   7.037  1.00  0.00    +0.001 A 
ATOM     12  C   UNL     1     -25.538   8.953   6.693  1.00  0.00    +0.009 A 
ATOM     13  C   UNL     1     -26.921   9.196   6.765  1.00  0.00    -0.017 A 
ATOM     14  C   UNL     1     -27.409  10.453   6.412  1.00  0.00    +0.021 A 
ENDROOT
BRANCH   1  15
ATOM     15  C   UNL     1     -29.168  12.119   6.064  1.00  0.00    +0.260 C 
ATOM     16  O   UNL     1     -28.617  12.714   5.144  1.00  0.00    -0.298 OA
ENDBRANCH   1  15
TORSDOF 1
ENDMDL
MODEL 5
REMARK VINA RESULT:    -8.111      2.103      5.220
REMARK INTER + INTRA:          -8.660
REMARK INTER:                  -9.127
REMARK INTRA:                   0.466
REMARK UNBOUND:                -0.075
REMARK SMILES O=Cc1cc2ccccc2c2ccccc12
REMARK SMILES IDX 3 1 16 2 15 3 14 4 13 5 12 6 11 7 10 8 9 9 8 10 7 11 6 12
REMARK SMILES IDX 5 13 4 14 2 15 1 16
REMARK H PARENT
ROOT
ATOM      1  C   UNL     1     -27.222   9.779   6.302  1.00  0.00    +0.023 A 
ATOM      2  C   UNL     1     -26.787   8.549   6.860  1.00  0.00    -0.007 A 
ATOM      3  C   UNL     1     -25.427   8.135   6.881  1.00  0.00    +0.009 A 
ATOM      4  C   UNL     1     -25.026   6.920   7.434  1.00  0.00    +0.001 A 
ATOM      5  C   UNL     1     -25.972   6.079   7.986  1.00  0.00    +0.001 A 
ATOM      6  C   UNL     1     -27.314   6.457   7.981  1.00  0.00    +0.009 A 
ATOM      7  C   UNL     1     -27.768   7.684   7.428  1.00  0.00    -0.010 A 
ATOM      8  C   UNL     1     -29.160   8.064   7.429  1.00  0.00    -0.010 A 
ATOM      9  C   UNL     1     -30.212   7.276   7.968  1.00  0.00    +0.009 A 
ATOM     10  C   UNL     1     -31.549   7.686   7.947  1.00  0.00    +0.001 A 
ATOM     11  C   UNL     1     -31.887   8.904   7.382  1.00  0.00    +0.001 A 
ATOM     12  C   UNL     1     -30.887   9.707   6.842  1.00  0.00    +0.009 A 
ATOM     13  C   UNL     1     -29.542   9.302   6.860  1.00  0.00    -0.017 A 
ATOM     14  C   UNL     1     -28.573  10.138   6.308  1.00  0.00    +0.021 A 
ENDROOT
BRANCH   1  15
ATOM     15  C   UNL     1     -26.289  10.757   5.684  1.00  0.00    +0.260 C 
ATOM     16  O   UNL     1     -25.087  10.766   5.934  1.00  0.00    -0.298 OA
ENDBRANCH   1  15
TORSDOF 1
ENDMDL
MODEL 6
REMARK VINA RESULT:    -7.671      8.317     10.757
REMARK INTER + INTRA:          -8.195
REMARK INTER:                  -8.138
REMARK INTRA:                  -0.057
REMARK UNBOUND:                -0.075
REMARK SMILES O=Cc1cc2ccccc2c2ccccc12
REMARK SMILES IDX 3 1 16 2 15 3 14 4 13 5 12 6 11 7 10 8 9 9 8 10 7 11 6 12
REMARK SMILES IDX 5 13 4 14 2 15 1 16
REMARK H PARENT
ROOT
ATOM      1  C   UNL     1     -29.110   1.184  13.589  1.00  0.00    +0.023 A 
ATOM      2  C   UNL     1     -29.539   0.519  12.412  1.00  0.00    -0.007 A 
ATOM      3  C   UNL     1     -30.561  -0.470  12.399  1.00  0.00    +0.009 A 
ATOM      4  C   UNL     1     -30.965  -1.111  11.228  1.00  0.00    +0.001 A 
ATOM      5  C   UNL     1     -30.359  -0.783  10.031  1.00  0.00    +0.001 A 
ATOM      6  C   UNL     1     -29.354   0.183  10.011  1.00  0.00    +0.009 A 
ATOM      7  C   UNL     1     -28.912   0.860  11.178  1.00  0.00    -0.010 A 
ATOM      8  C   UNL     1     -27.870   1.858  11.144  1.00  0.00    -0.010 A 
ATOM      9  C   UNL     1     -27.182   2.269   9.970  1.00  0.00    +0.009 A 
ATOM     10  C   UNL     1     -26.178   3.242   9.986  1.00  0.00    +0.001 A 
ATOM     11  C   UNL     1     -25.820   3.843  11.180  1.00  0.00    +0.001 A 
ATOM     12  C   UNL     1     -26.467   3.470  12.354  1.00  0.00    +0.009 A 
ATOM     13  C   UNL     1     -27.478   2.493  12.346  1.00  0.00    -0.017 A 
ATOM     14  C   UNL     1     -28.099   2.150  13.545  1.00  0.00    +0.021 A 
ENDROOT
BRANCH   1  15
ATOM     15  C   UNL     1     -29.693   0.908  14.928  1.00  0.00    +0.260 C 
ATOM     16  O   UNL     1     -29.179   1.320  15.964  1.00  0.00    -0.298 OA
ENDBRANCH   1  15
TORSDOF 1
ENDMDL
MODEL 7
REMARK VINA RESULT:    -7.621      9.067     11.398
REMARK INTER + INTRA:          -8.141
REMARK INTER:                  -8.068
REMARK INTRA:                  -0.073
REMARK UNBOUND:                -0.075
REMARK SMILES O=Cc1cc2ccccc2c2ccccc12
REMARK SMILES IDX 3 1 16 2 15 3 14 4 13 5 12 6 11 7 10 8 9 9 8 10 7 11 6 12
REMARK SMILES IDX 5 13 4 14 2 15 1 16
REMARK H PARENT
ROOT
ATOM      1  C   UNL     1     -29.448   0.899  13.997  1.00  0.00    +0.023 A 
ATOM      2  C   UNL     1     -28.662   1.534  13.002  1.00  0.00    -0.007 A 
ATOM      3  C   UNL     1     -27.631   2.468  13.294  1.00  0.00    +0.009 A 
ATOM      4  C   UNL     1     -26.874   3.080  12.296  1.00  0.00    +0.001 A 
ATOM      5  C   UNL     1     -27.122   2.776  10.972  1.00  0.00    +0.001 A 
ATOM      6  C   UNL     1     -28.126   1.863  10.653  1.00  0.00    +0.009 A 
ATOM      7  C   UNL     1     -28.922   1.218  11.636  1.00  0.00    -0.010 A 
ATOM      8  C   UNL     1     -29.959   0.274  11.292  1.00  0.00    -0.010 A 
ATOM      9  C   UNL     1     -30.297  -0.108   9.966  1.00  0.00    +0.009 A 
ATOM     10  C   UNL     1     -31.311  -1.028   9.681  1.00  0.00    +0.001 A 
ATOM     11  C   UNL     1     -32.030  -1.602  10.715  1.00  0.00    +0.001 A 
ATOM     12  C   UNL     1     -31.733  -1.255  12.029  1.00  0.00    +0.009 A 
ATOM     13  C   UNL     1     -30.715  -0.332  12.323  1.00  0.00    -0.017 A 
ATOM     14  C   UNL     1     -30.451  -0.014  13.654  1.00  0.00    +0.021 A 
ENDROOT
BRANCH   1  15
ATOM     15  C   UNL     1     -29.265   1.152  15.451  1.00  0.00    +0.260 C 
ATOM     16  O   UNL     1     -28.486   0.498  16.137  1.00  0.00    -0.298 OA
ENDBRANCH   1  15
TORSDOF 1
ENDMDL
MODEL 8
REMARK VINA RESULT:    -7.298      7.575     10.409
REMARK INTER + INTRA:          -7.800
REMARK INTER:                  -7.727
REMARK INTRA:                  -0.073
REMARK UNBOUND:                -0.075
REMARK SMILES O=Cc1cc2ccccc2c2ccccc12
REMARK SMILES IDX 3 1 16 2 15 3 14 4 13 5 12 6 11 7 10 8 9 9 8 10 7 11 6 12
REMARK SMILES IDX 5 13 4 14 2 15 1 16
REMARK H PARENT
ROOT
ATOM      1  C   UNL     1     -33.897   3.418   9.855  1.00  0.00    +0.023 A 
ATOM      2  C   UNL     1     -33.912   4.534   8.979  1.00  0.00    -0.007 A 
ATOM      3  C   UNL     1     -32.749   5.040   8.335  1.00  0.00    +0.009 A 
ATOM      4  C   UNL     1     -32.790   6.140   7.479  1.00  0.00    +0.001 A 
ATOM      5  C   UNL     1     -33.995   6.769   7.238  1.00  0.00    +0.001 A 
ATOM      6  C   UNL     1     -35.153   6.297   7.855  1.00  0.00    +0.009 A 
ATOM      7  C   UNL     1     -35.158   5.181   8.734  1.00  0.00    -0.010 A 
ATOM      8  C   UNL     1     -36.364   4.701   9.366  1.00  0.00    -0.010 A 
ATOM      9  C   UNL     1     -37.652   5.274   9.188  1.00  0.00    +0.009 A 
ATOM     10  C   UNL     1     -38.793   4.774   9.823  1.00  0.00    +0.001 A 
ATOM     11  C   UNL     1     -38.690   3.678  10.663  1.00  0.00    +0.001 A 
ATOM     12  C   UNL     1     -37.447   3.087  10.866  1.00  0.00    +0.009 A 
ATOM     13  C   UNL     1     -36.296   3.584  10.232  1.00  0.00    -0.017 A 
ATOM     14  C   UNL     1     -35.071   2.961  10.463  1.00  0.00    +0.021 A 
ENDROOT
BRANCH   1  15
ATOM     15  C   UNL     1     -32.657   2.668  10.183  1.00  0.00    +0.260 C 
ATOM     16  O   UNL     1     -32.268   1.718   9.509  1.00  0.00    -0.298 OA
ENDBRANCH   1  15
TORSDOF 1
ENDMDL
MODEL 9
REMARK VINA RESULT:    -7.058      7.482     10.248
REMARK INTER + INTRA:          -7.546
REMARK INTER:                  -7.489
REMARK INTRA:                  -0.057
REMARK UNBOUND:                -0.075
REMARK SMILES O=Cc1cc2ccccc2c2ccccc12
REMARK SMILES IDX 3 1 16 2 15 3 14 4 13 5 12 6 11 7 10 8 9 9 8 10 7 11 6 12
REMARK SMILES IDX 5 13 4 14 2 15 1 16
REMARK H PARENT
ROOT
ATOM      1  C   UNL     1     -34.361   3.261  10.677  1.00  0.00    +0.023 A 
ATOM      2  C   UNL     1     -35.688   3.627  10.335  1.00  0.00    -0.007 A 
ATOM      3  C   UNL     1     -36.840   3.034  10.921  1.00  0.00    +0.009 A 
ATOM      4  C   UNL     1     -38.135   3.410  10.567  1.00  0.00    +0.001 A 
ATOM      5  C   UNL     1     -38.320   4.393   9.614  1.00  0.00    +0.001 A 
ATOM      6  C   UNL     1     -37.211   4.993   9.021  1.00  0.00    +0.009 A 
ATOM      7  C   UNL     1     -35.875   4.641   9.351  1.00  0.00    -0.010 A 
ATOM      8  C   UNL     1     -34.734   5.271   8.729  1.00  0.00    -0.010 A 
ATOM      9  C   UNL     1     -34.812   6.288   7.741  1.00  0.00    +0.009 A 
ATOM     10  C   UNL     1     -33.678   6.870   7.166  1.00  0.00    +0.001 A 
ATOM     11  C   UNL     1     -32.416   6.454   7.558  1.00  0.00    +0.001 A 
ATOM     12  C   UNL     1     -32.295   5.459   8.523  1.00  0.00    +0.009 A 
ATOM     13  C   UNL     1     -33.431   4.870   9.106  1.00  0.00    -0.017 A 
ATOM     14  C   UNL     1     -33.262   3.877  10.069  1.00  0.00    +0.021 A 
ENDROOT
BRANCH   1  15
ATOM     15  C   UNL     1     -34.048   2.217  11.688  1.00  0.00    +0.260 C 
ATOM     16  O   UNL     1     -32.925   1.736  11.806  1.00  0.00    -0.298 OA
ENDBRANCH   1  15
TORSDOF 1
ENDMDL
