REMARK SMILES O=[N+]([O-])c1ccc2c3c(cccc13)CC2
REMARK SMILES IDX 3 1 2 2 1 3 4 4 13 5 5 6 12 7 8 8 6 9 11 10 7 11 9 12 10 13
REMARK SMILES IDX 15 14 14 15
REMARK H PARENT
ROOT
ATOM      1  O   UNL     1       3.804   0.413   0.985  1.00  0.00    -0.258 OA
ATOM      2  N   UNL     1       3.372  -0.502   0.271  1.00  0.00    +0.063 N 
ATOM      3  O   UNL     1       4.074  -1.285  -0.386  1.00  0.00    -0.258 OA
ENDROOT
BRANCH   2   4
ATOM      4  C   UNL     1       1.932  -0.700   0.217  1.00  0.00    +0.277 A 
ATOM      5  C   UNL     1       1.061   0.403   0.008  1.00  0.00    +0.060 A 
ATOM      6  C   UNL     1       1.448  -2.022   0.371  1.00  0.00    +0.086 A 
ATOM      7  C   UNL     1       1.333   1.784  -0.191  1.00  0.00    +0.016 A 
ATOM      8  C   UNL     1      -0.295   0.060  -0.019  1.00  0.00    -0.005 A 
ATOM      9  C   UNL     1       0.072  -2.277   0.331  1.00  0.00    +0.011 A 
ATOM     10  C   UNL     1       0.288   2.708  -0.386  1.00  0.00    +0.001 A 
ATOM     11  C   UNL     1      -0.793  -1.212   0.135  1.00  0.00    -0.039 A 
ATOM     12  C   UNL     1      -1.325   0.947  -0.209  1.00  0.00    -0.039 A 
ATOM     13  C   UNL     1      -1.049   2.290  -0.395  1.00  0.00    +0.004 A 
ATOM     14  C   UNL     1      -2.293  -1.228   0.051  1.00  0.00    +0.041 C 
ATOM     15  C   UNL     1      -2.659   0.258  -0.182  1.00  0.00    +0.041 C 
ENDBRANCH   2   4
TORSDOF 1
