MODEL 1
REMARK VINA RESULT:    -9.769      0.000      0.000
REMARK INTER + INTRA:         -11.911
REMARK INTER:                 -11.197
REMARK INTRA:                  -0.714
REMARK UNBOUND:                -0.714
REMARK SMILES O=C(Nc1cccc2ccccc12)c1ccccc1O
REMARK SMILES IDX 19 1 14 2 15 3 16 4 17 5 18 6 20 7 2 9 1 10 3 11 4 13 13 14
REMARK SMILES IDX 5 15 12 16 8 17 6 18 11 19 9 20 7 21 10 22
REMARK H PARENT 20 8 3 12
ROOT
ATOM      1  C   UNL     1     -33.629   6.372   7.230  1.00  0.00    +0.128 A 
ATOM      2  C   UNL     1     -32.293   6.713   7.493  1.00  0.00    +0.081 A 
ATOM      3  C   UNL     1     -31.627   6.085   8.557  1.00  0.00    +0.018 A 
ATOM      4  C   UNL     1     -32.276   5.102   9.311  1.00  0.00    +0.001 A 
ATOM      5  C   UNL     1     -33.592   4.749   9.016  1.00  0.00    +0.004 A 
ATOM      6  C   UNL     1     -34.270   5.387   7.978  1.00  0.00    +0.047 A 
ENDROOT
BRANCH   1   7
ATOM      7  O   UNL     1     -34.373   6.969   6.247  1.00  0.00    -0.507 OA
ATOM      8  H   UNL     1     -35.322   6.861   6.484  1.00  0.00    +0.293 HD
ENDBRANCH   1   7
BRANCH   2   9
ATOM      9  C   UNL     1     -31.619   7.750   6.659  1.00  0.00    +0.259 C 
ATOM     10  O   UNL     1     -31.805   7.702   5.446  1.00  0.00    -0.269 OA
ATOM     11  N   UNL     1     -30.794   8.625   7.340  1.00  0.00    -0.321 N 
ATOM     12  H   UNL     1     -30.598   8.392   8.300  1.00  0.00    +0.170 HD
BRANCH  11  13
ATOM     13  C   UNL     1     -30.092   9.748   6.822  1.00  0.00    +0.049 A 
ATOM     14  C   UNL     1     -28.687   9.642   6.557  1.00  0.00    +0.005 A 
ATOM     15  C   UNL     1     -30.748  10.966   6.594  1.00  0.00    +0.027 A 
ATOM     16  C   UNL     1     -27.906   8.469   6.742  1.00  0.00    +0.011 A 
ATOM     17  C   UNL     1     -28.003  10.787   6.065  1.00  0.00    -0.016 A 
ATOM     18  C   UNL     1     -30.058  12.072   6.107  1.00  0.00    +0.003 A 
ATOM     19  C   UNL     1     -26.536   8.432   6.464  1.00  0.00    +0.001 A 
ATOM     20  C   UNL     1     -26.626  10.734   5.791  1.00  0.00    +0.009 A 
ATOM     21  C   UNL     1     -28.697  11.982   5.845  1.00  0.00    +0.009 A 
ATOM     22  C   UNL     1     -25.895   9.566   5.989  1.00  0.00    +0.001 A 
ENDBRANCH  11  13
ENDBRANCH   2   9
TORSDOF 3
ENDMDL
MODEL 2
REMARK VINA RESULT:    -9.651      1.784      6.817
REMARK INTER + INTRA:         -11.776
REMARK INTER:                 -11.249
REMARK INTRA:                  -0.527
REMARK UNBOUND:                -0.714
REMARK SMILES O=C(Nc1cccc2ccccc12)c1ccccc1O
REMARK SMILES IDX 19 1 14 2 15 3 16 4 17 5 18 6 20 7 2 9 1 10 3 11 4 13 13 14
REMARK SMILES IDX 5 15 12 16 8 17 6 18 11 19 9 20 7 21 10 22
REMARK H PARENT 20 8 3 12
ROOT
ATOM      1  C   UNL     1     -28.037  10.212   6.479  1.00  0.00    +0.128 A 
ATOM      2  C   UNL     1     -29.361  10.666   6.580  1.00  0.00    +0.081 A 
ATOM      3  C   UNL     1     -29.682  11.941   6.090  1.00  0.00    +0.018 A 
ATOM      4  C   UNL     1     -28.703  12.724   5.470  1.00  0.00    +0.001 A 
ATOM      5  C   UNL     1     -27.399  12.245   5.346  1.00  0.00    +0.004 A 
ATOM      6  C   UNL     1     -27.065  10.990   5.854  1.00  0.00    +0.047 A 
ENDROOT
BRANCH   1   7
ATOM      7  O   UNL     1     -27.621   9.005   6.975  1.00  0.00    -0.507 OA
ATOM      8  H   UNL     1     -26.722   8.827   6.616  1.00  0.00    +0.293 HD
ENDBRANCH   1   7
BRANCH   2   9
ATOM      9  C   UNL     1     -30.389   9.801   7.228  1.00  0.00    +0.259 C 
ATOM     10  O   UNL     1     -31.245  10.359   7.909  1.00  0.00    -0.269 OA
ATOM     11  N   UNL     1     -30.227   8.440   7.047  1.00  0.00    -0.321 N 
ATOM     12  H   UNL     1     -29.356   8.149   6.635  1.00  0.00    +0.170 HD
BRANCH  11  13
ATOM     13  C   UNL     1     -31.086   7.392   7.479  1.00  0.00    +0.049 A 
ATOM     14  C   UNL     1     -32.148   6.950   6.622  1.00  0.00    +0.005 A 
ATOM     15  C   UNL     1     -30.929   6.806   8.743  1.00  0.00    +0.027 A 
ATOM     16  C   UNL     1     -32.415   7.457   5.322  1.00  0.00    +0.011 A 
ATOM     17  C   UNL     1     -33.010   5.920   7.089  1.00  0.00    -0.016 A 
ATOM     18  C   UNL     1     -31.782   5.795   9.176  1.00  0.00    +0.003 A 
ATOM     19  C   UNL     1     -33.469   6.981   4.536  1.00  0.00    +0.001 A 
ATOM     20  C   UNL     1     -34.065   5.453   6.288  1.00  0.00    +0.009 A 
ATOM     21  C   UNL     1     -32.813   5.357   8.355  1.00  0.00    +0.009 A 
ATOM     22  C   UNL     1     -34.295   5.979   5.021  1.00  0.00    +0.001 A 
ENDBRANCH  11  13
ENDBRANCH   2   9
TORSDOF 3
ENDMDL
MODEL 3
REMARK VINA RESULT:    -9.264      1.498      6.662
REMARK INTER + INTRA:         -11.332
REMARK INTER:                 -10.732
REMARK INTRA:                  -0.600
REMARK UNBOUND:                -0.714
REMARK SMILES O=C(Nc1cccc2ccccc12)c1ccccc1O
REMARK SMILES IDX 19 1 14 2 15 3 16 4 17 5 18 6 20 7 2 9 1 10 3 11 4 13 13 14
REMARK SMILES IDX 5 15 12 16 8 17 6 18 11 19 9 20 7 21 10 22
REMARK H PARENT 20 8 3 12
ROOT
ATOM      1  C   UNL     1     -28.766   9.606   6.653  1.00  0.00    +0.128 A 
ATOM      2  C   UNL     1     -30.056  10.146   6.538  1.00  0.00    +0.081 A 
ATOM      3  C   UNL     1     -30.201  11.487   6.150  1.00  0.00    +0.018 A 
ATOM      4  C   UNL     1     -29.074  12.255   5.839  1.00  0.00    +0.001 A 
ATOM      5  C   UNL     1     -27.800  11.694   5.924  1.00  0.00    +0.004 A 
ATOM      6  C   UNL     1     -27.645  10.371   6.335  1.00  0.00    +0.047 A 
ENDROOT
BRANCH   1   7
ATOM      7  O   UNL     1     -28.526   8.325   7.074  1.00  0.00    -0.507 OA
ATOM      8  H   UNL     1     -27.780   8.356   7.715  1.00  0.00    +0.293 HD
ENDBRANCH   1   7
BRANCH   2   9
ATOM      9  C   UNL     1     -31.241   9.297   6.856  1.00  0.00    +0.259 C 
ATOM     10  O   UNL     1     -32.021   9.717   7.706  1.00  0.00    -0.269 OA
ATOM     11  N   UNL     1     -31.299   8.080   6.201  1.00  0.00    -0.321 N 
ATOM     12  H   UNL     1     -30.471   7.810   5.698  1.00  0.00    +0.170 HD
BRANCH  11  13
ATOM     13  C   UNL     1     -32.337   7.111   6.250  1.00  0.00    +0.049 A 
ATOM     14  C   UNL     1     -32.477   6.282   7.413  1.00  0.00    +0.005 A 
ATOM     15  C   UNL     1     -33.209   6.932   5.167  1.00  0.00    +0.027 A 
ATOM     16  C   UNL     1     -31.664   6.362   8.576  1.00  0.00    +0.011 A 
ATOM     17  C   UNL     1     -33.506   5.302   7.425  1.00  0.00    -0.016 A 
ATOM     18  C   UNL     1     -34.212   5.969   5.204  1.00  0.00    +0.003 A 
ATOM     19  C   UNL     1     -31.853   5.522   9.678  1.00  0.00    +0.001 A 
ATOM     20  C   UNL     1     -33.682   4.465   8.540  1.00  0.00    +0.009 A 
ATOM     21  C   UNL     1     -34.359   5.161   6.324  1.00  0.00    +0.009 A 
ATOM     22  C   UNL     1     -32.863   4.572   9.659  1.00  0.00    +0.001 A 
ENDBRANCH  11  13
ENDBRANCH   2   9
TORSDOF 3
ENDMDL
MODEL 4
REMARK VINA RESULT:    -9.206      1.971      7.015
REMARK INTER + INTRA:         -11.266
REMARK INTER:                 -10.536
REMARK INTRA:                  -0.730
REMARK UNBOUND:                -0.714
REMARK SMILES O=C(Nc1cccc2ccccc12)c1ccccc1O
REMARK SMILES IDX 19 1 14 2 15 3 16 4 17 5 18 6 20 7 2 9 1 10 3 11 4 13 13 14
REMARK SMILES IDX 5 15 12 16 8 17 6 18 11 19 9 20 7 21 10 22
REMARK H PARENT 20 8 3 12
ROOT
ATOM      1  C   UNL     1     -32.167   9.560   7.613  1.00  0.00    +0.128 A 
ATOM      2  C   UNL     1     -31.581   8.368   7.158  1.00  0.00    +0.081 A 
ATOM      3  C   UNL     1     -30.233   8.380   6.767  1.00  0.00    +0.018 A 
ATOM      4  C   UNL     1     -29.479   9.553   6.874  1.00  0.00    +0.001 A 
ATOM      5  C   UNL     1     -30.067  10.721   7.360  1.00  0.00    +0.004 A 
ATOM      6  C   UNL     1     -31.412  10.725   7.726  1.00  0.00    +0.047 A 
ENDROOT
BRANCH   1   7
ATOM      7  O   UNL     1     -33.487   9.656   7.967  1.00  0.00    -0.507 OA
ATOM      8  H   UNL     1     -33.525   9.858   8.929  1.00  0.00    +0.293 HD
ENDBRANCH   1   7
BRANCH   2   9
ATOM      9  C   UNL     1     -32.404   7.127   7.075  1.00  0.00    +0.259 C 
ATOM     10  O   UNL     1     -32.539   6.617   5.966  1.00  0.00    -0.269 OA
ATOM     11  N   UNL     1     -32.990   6.716   8.258  1.00  0.00    -0.321 N 
ATOM     12  H   UNL     1     -32.941   7.366   9.024  1.00  0.00    +0.170 HD
BRANCH  11  13
ATOM     13  C   UNL     1     -33.756   5.541   8.491  1.00  0.00    +0.049 A 
ATOM     14  C   UNL     1     -33.101   4.351   8.952  1.00  0.00    +0.005 A 
ATOM     15  C   UNL     1     -35.137   5.521   8.250  1.00  0.00    +0.027 A 
ATOM     16  C   UNL     1     -31.713   4.238   9.236  1.00  0.00    +0.011 A 
ATOM     17  C   UNL     1     -33.886   3.182   9.151  1.00  0.00    -0.016 A 
ATOM     18  C   UNL     1     -35.884   4.366   8.457  1.00  0.00    +0.003 A 
ATOM     19  C   UNL     1     -31.137   3.045   9.683  1.00  0.00    +0.001 A 
ATOM     20  C   UNL     1     -33.291   1.991   9.600  1.00  0.00    +0.009 A 
ATOM     21  C   UNL     1     -35.263   3.206   8.904  1.00  0.00    +0.009 A 
ATOM     22  C   UNL     1     -31.927   1.920   9.864  1.00  0.00    +0.001 A 
ENDBRANCH  11  13
ENDBRANCH   2   9
TORSDOF 3
ENDMDL
MODEL 5
REMARK VINA RESULT:    -9.196      1.934      7.316
REMARK INTER + INTRA:         -11.254
REMARK INTER:                 -10.605
REMARK INTRA:                  -0.649
REMARK UNBOUND:                -0.714
REMARK SMILES O=C(Nc1cccc2ccccc12)c1ccccc1O
REMARK SMILES IDX 19 1 14 2 15 3 16 4 17 5 18 6 20 7 2 9 1 10 3 11 4 13 13 14
REMARK SMILES IDX 5 15 12 16 8 17 6 18 11 19 9 20 7 21 10 22
REMARK H PARENT 20 8 3 12
ROOT
ATOM      1  C   UNL     1     -32.147   9.845   7.713  1.00  0.00    +0.128 A 
ATOM      2  C   UNL     1     -31.261   8.817   7.355  1.00  0.00    +0.081 A 
ATOM      3  C   UNL     1     -29.941   9.146   7.009  1.00  0.00    +0.018 A 
ATOM      4  C   UNL     1     -29.509  10.474   7.066  1.00  0.00    +0.001 A 
ATOM      5  C   UNL     1     -30.391  11.481   7.457  1.00  0.00    +0.004 A 
ATOM      6  C   UNL     1     -31.711  11.167   7.777  1.00  0.00    +0.047 A 
ENDROOT
BRANCH   1   7
ATOM      7  O   UNL     1     -33.465   9.626   8.015  1.00  0.00    -0.507 OA
ATOM      8  H   UNL     1     -33.519   8.784   8.521  1.00  0.00    +0.293 HD
ENDBRANCH   1   7
BRANCH   2   9
ATOM      9  C   UNL     1     -31.745   7.406   7.323  1.00  0.00    +0.259 C 
ATOM     10  O   UNL     1     -32.003   6.926   6.223  1.00  0.00    -0.269 OA
ATOM     11  N   UNL     1     -31.917   6.804   8.556  1.00  0.00    -0.321 N 
ATOM     12  H   UNL     1     -31.855   7.411   9.357  1.00  0.00    +0.170 HD
BRANCH  11  13
ATOM     13  C   UNL     1     -32.290   5.459   8.827  1.00  0.00    +0.049 A 
ATOM     14  C   UNL     1     -33.674   5.087   8.784  1.00  0.00    +0.005 A 
ATOM     15  C   UNL     1     -31.327   4.497   9.164  1.00  0.00    +0.027 A 
ATOM     16  C   UNL     1     -34.746   5.961   8.456  1.00  0.00    +0.011 A 
ATOM     17  C   UNL     1     -34.023   3.742   9.086  1.00  0.00    -0.016 A 
ATOM     18  C   UNL     1     -31.692   3.186   9.450  1.00  0.00    +0.003 A 
ATOM     19  C   UNL     1     -36.077   5.533   8.434  1.00  0.00    +0.001 A 
ATOM     20  C   UNL     1     -35.366   3.329   9.060  1.00  0.00    +0.009 A 
ATOM     21  C   UNL     1     -33.029   2.812   9.412  1.00  0.00    +0.009 A 
ATOM     22  C   UNL     1     -36.387   4.217   8.737  1.00  0.00    +0.001 A 
ENDBRANCH  11  13
ENDBRANCH   2   9
TORSDOF 3
ENDMDL
MODEL 6
REMARK VINA RESULT:    -8.980      3.075      8.693
REMARK INTER + INTRA:         -11.007
REMARK INTER:                 -10.322
REMARK INTRA:                  -0.685
REMARK UNBOUND:                -0.714
REMARK SMILES O=C(Nc1cccc2ccccc12)c1ccccc1O
REMARK SMILES IDX 19 1 14 2 15 3 16 4 17 5 18 6 20 7 2 9 1 10 3 11 4 13 13 14
REMARK SMILES IDX 5 15 12 16 8 17 6 18 11 19 9 20 7 21 10 22
REMARK H PARENT 20 8 3 12
ROOT
ATOM      1  C   UNL     1     -32.989   7.126   6.016  1.00  0.00    +0.128 A 
ATOM      2  C   UNL     1     -32.847   6.401   7.209  1.00  0.00    +0.081 A 
ATOM      3  C   UNL     1     -31.724   6.635   8.018  1.00  0.00    +0.018 A 
ATOM      4  C   UNL     1     -30.788   7.609   7.658  1.00  0.00    +0.001 A 
ATOM      5  C   UNL     1     -30.960   8.347   6.487  1.00  0.00    +0.004 A 
ATOM      6  C   UNL     1     -32.059   8.102   5.664  1.00  0.00    +0.047 A 
ENDROOT
BRANCH   1   7
ATOM      7  O   UNL     1     -34.023   6.929   5.140  1.00  0.00    -0.507 OA
ATOM      8  H   UNL     1     -34.567   6.184   5.482  1.00  0.00    +0.293 HD
ENDBRANCH   1   7
BRANCH   2   9
ATOM      9  C   UNL     1     -33.872   5.382   7.578  1.00  0.00    +0.259 C 
ATOM     10  O   UNL     1     -34.363   4.723   6.665  1.00  0.00    -0.269 OA
ATOM     11  N   UNL     1     -34.214   5.334   8.917  1.00  0.00    -0.321 N 
ATOM     12  H   UNL     1     -33.865   6.084   9.489  1.00  0.00    +0.170 HD
BRANCH  11  13
ATOM     13  C   UNL     1     -35.096   4.423   9.561  1.00  0.00    +0.049 A 
ATOM     14  C   UNL     1     -36.482   4.763   9.705  1.00  0.00    +0.005 A 
ATOM     15  C   UNL     1     -34.624   3.211  10.084  1.00  0.00    +0.027 A 
ATOM     16  C   UNL     1     -37.086   5.955   9.220  1.00  0.00    +0.011 A 
ATOM     17  C   UNL     1     -37.336   3.848  10.377  1.00  0.00    -0.016 A 
ATOM     18  C   UNL     1     -35.482   2.328  10.734  1.00  0.00    +0.003 A 
ATOM     19  C   UNL     1     -38.446   6.226   9.395  1.00  0.00    +0.001 A 
ATOM     20  C   UNL     1     -38.701   4.136  10.545  1.00  0.00    +0.009 A 
ATOM     21  C   UNL     1     -36.826   2.645  10.879  1.00  0.00    +0.009 A 
ATOM     22  C   UNL     1     -39.254   5.317  10.059  1.00  0.00    +0.001 A 
ENDBRANCH  11  13
ENDBRANCH   2   9
TORSDOF 3
ENDMDL
MODEL 7
REMARK VINA RESULT:    -8.795      6.839     10.664
REMARK INTER + INTRA:         -10.794
REMARK INTER:                 -10.121
REMARK INTRA:                  -0.673
REMARK UNBOUND:                -0.714
REMARK SMILES O=C(Nc1cccc2ccccc12)c1ccccc1O
REMARK SMILES IDX 19 1 14 2 15 3 16 4 17 5 18 6 20 7 2 9 1 10 3 11 4 13 13 14
REMARK SMILES IDX 5 15 12 16 8 17 6 18 11 19 9 20 7 21 10 22
REMARK H PARENT 20 8 3 12
ROOT
ATOM      1  C   UNL     1     -25.164   3.992  10.426  1.00  0.00    +0.128 A 
ATOM      2  C   UNL     1     -26.422   3.408  10.208  1.00  0.00    +0.081 A 
ATOM      3  C   UNL     1     -27.220   3.885   9.156  1.00  0.00    +0.018 A 
ATOM      4  C   UNL     1     -26.744   4.895   8.314  1.00  0.00    +0.001 A 
ATOM      5  C   UNL     1     -25.479   5.441   8.522  1.00  0.00    +0.004 A 
ATOM      6  C   UNL     1     -24.690   4.992   9.580  1.00  0.00    +0.047 A 
ENDROOT
BRANCH   1   7
ATOM      7  O   UNL     1     -24.340   3.628  11.458  1.00  0.00    -0.507 OA
ATOM      8  H   UNL     1     -24.814   2.954  11.995  1.00  0.00    +0.293 HD
ENDBRANCH   1   7
BRANCH   2   9
ATOM      9  C   UNL     1     -26.894   2.318  11.110  1.00  0.00    +0.259 C 
ATOM     10  O   UNL     1     -26.056   1.510  11.500  1.00  0.00    -0.269 OA
ATOM     11  N   UNL     1     -28.254   2.293  11.359  1.00  0.00    -0.321 N 
ATOM     12  H   UNL     1     -28.818   2.905  10.793  1.00  0.00    +0.170 HD
BRANCH  11  13
ATOM     13  C   UNL     1     -28.967   1.425  12.230  1.00  0.00    +0.049 A 
ATOM     14  C   UNL     1     -29.849   0.437  11.678  1.00  0.00    +0.005 A 
ATOM     15  C   UNL     1     -28.843   1.539  13.622  1.00  0.00    +0.027 A 
ATOM     16  C   UNL     1     -30.062   0.216  10.291  1.00  0.00    +0.011 A 
ATOM     17  C   UNL     1     -30.571  -0.400  12.572  1.00  0.00    -0.016 A 
ATOM     18  C   UNL     1     -29.557   0.705  14.477  1.00  0.00    +0.003 A 
ATOM     19  C   UNL     1     -30.938  -0.766   9.818  1.00  0.00    +0.001 A 
ATOM     20  C   UNL     1     -31.448  -1.381  12.080  1.00  0.00    +0.009 A 
ATOM     21  C   UNL     1     -30.413  -0.256  13.955  1.00  0.00    +0.009 A 
ATOM     22  C   UNL     1     -31.632  -1.564  10.713  1.00  0.00    +0.001 A 
ENDBRANCH  11  13
ENDBRANCH   2   9
TORSDOF 3
ENDMDL
MODEL 8
REMARK VINA RESULT:    -8.742      3.292      8.530
REMARK INTER + INTRA:         -10.734
REMARK INTER:                 -10.220
REMARK INTRA:                  -0.514
REMARK UNBOUND:                -0.714
REMARK SMILES O=C(Nc1cccc2ccccc12)c1ccccc1O
REMARK SMILES IDX 19 1 14 2 15 3 16 4 17 5 18 6 20 7 2 9 1 10 3 11 4 13 13 14
REMARK SMILES IDX 5 15 12 16 8 17 6 18 11 19 9 20 7 21 10 22
REMARK H PARENT 20 8 3 12
ROOT
ATOM      1  C   UNL     1     -33.222   6.980   5.881  1.00  0.00    +0.128 A 
ATOM      2  C   UNL     1     -33.319   6.373   7.143  1.00  0.00    +0.081 A 
ATOM      3  C   UNL     1     -32.267   6.532   8.058  1.00  0.00    +0.018 A 
ATOM      4  C   UNL     1     -31.162   7.323   7.728  1.00  0.00    +0.001 A 
ATOM      5  C   UNL     1     -31.095   7.948   6.483  1.00  0.00    +0.004 A 
ATOM      6  C   UNL     1     -32.124   7.773   5.558  1.00  0.00    +0.047 A 
ENDROOT
BRANCH   1   7
ATOM      7  O   UNL     1     -34.174   6.836   4.907  1.00  0.00    -0.507 OA
ATOM      8  H   UNL     1     -34.640   7.698   4.816  1.00  0.00    +0.293 HD
ENDBRANCH   1   7
BRANCH   2   9
ATOM      9  C   UNL     1     -34.520   5.552   7.475  1.00  0.00    +0.259 C 
ATOM     10  O   UNL     1     -34.812   4.645   6.701  1.00  0.00    -0.269 OA
ATOM     11  N   UNL     1     -35.225   5.948   8.597  1.00  0.00    -0.321 N 
ATOM     12  H   UNL     1     -34.963   6.835   8.993  1.00  0.00    +0.170 HD
BRANCH  11  13
ATOM     13  C   UNL     1     -36.353   5.316   9.188  1.00  0.00    +0.049 A 
ATOM     14  C   UNL     1     -36.205   4.020   9.784  1.00  0.00    +0.005 A 
ATOM     15  C   UNL     1     -37.614   5.928   9.172  1.00  0.00    +0.027 A 
ATOM     16  C   UNL     1     -34.986   3.293   9.869  1.00  0.00    +0.011 A 
ATOM     17  C   UNL     1     -37.354   3.398  10.345  1.00  0.00    -0.016 A 
ATOM     18  C   UNL     1     -38.723   5.302   9.731  1.00  0.00    +0.003 A 
ATOM     19  C   UNL     1     -34.911   2.030  10.464  1.00  0.00    +0.001 A 
ATOM     20  C   UNL     1     -37.261   2.128  10.938  1.00  0.00    +0.009 A 
ATOM     21  C   UNL     1     -38.593   4.047  10.312  1.00  0.00    +0.009 A 
ATOM     22  C   UNL     1     -36.049   1.447  10.998  1.00  0.00    +0.001 A 
ENDBRANCH  11  13
ENDBRANCH   2   9
TORSDOF 3
ENDMDL
MODEL 9
REMARK VINA RESULT:    -8.706      1.220      2.902
REMARK INTER + INTRA:         -10.693
REMARK INTER:                 -10.323
REMARK INTRA:                  -0.369
REMARK UNBOUND:                -0.714
REMARK SMILES O=C(Nc1cccc2ccccc12)c1ccccc1O
REMARK SMILES IDX 19 1 14 2 15 3 16 4 17 5 18 6 20 7 2 9 1 10 3 11 4 13 13 14
REMARK SMILES IDX 5 15 12 16 8 17 6 18 11 19 9 20 7 21 10 22
REMARK H PARENT 20 8 3 12
ROOT
ATOM      1  C   UNL     1     -32.187   5.742   8.682  1.00  0.00    +0.128 A 
ATOM      2  C   UNL     1     -32.500   6.593   7.610  1.00  0.00    +0.081 A 
ATOM      3  C   UNL     1     -33.842   6.742   7.230  1.00  0.00    +0.018 A 
ATOM      4  C   UNL     1     -34.852   6.086   7.940  1.00  0.00    +0.001 A 
ATOM      5  C   UNL     1     -34.529   5.270   9.024  1.00  0.00    +0.004 A 
ATOM      6  C   UNL     1     -33.196   5.095   9.393  1.00  0.00    +0.047 A 
ENDROOT
BRANCH   1   7
ATOM      7  O   UNL     1     -30.903   5.495   9.090  1.00  0.00    -0.507 OA
ATOM      8  H   UNL     1     -30.564   4.734   8.566  1.00  0.00    +0.293 HD
ENDBRANCH   1   7
BRANCH   2   9
ATOM      9  C   UNL     1     -31.403   7.297   6.884  1.00  0.00    +0.259 C 
ATOM     10  O   UNL     1     -31.500   7.377   5.663  1.00  0.00    -0.269 OA
ATOM     11  N   UNL     1     -30.348   7.730   7.666  1.00  0.00    -0.321 N 
ATOM     12  H   UNL     1     -30.337   7.398   8.616  1.00  0.00    +0.170 HD
BRANCH  11  13
ATOM     13  C   UNL     1     -29.215   8.487   7.263  1.00  0.00    +0.049 A 
ATOM     14  C   UNL     1     -29.391   9.835   6.806  1.00  0.00    +0.005 A 
ATOM     15  C   UNL     1     -27.930   7.925   7.278  1.00  0.00    +0.027 A 
ATOM     16  C   UNL     1     -30.634  10.521   6.744  1.00  0.00    +0.011 A 
ATOM     17  C   UNL     1     -28.245  10.561   6.382  1.00  0.00    -0.016 A 
ATOM     18  C   UNL     1     -26.822   8.658   6.863  1.00  0.00    +0.003 A 
ATOM     19  C   UNL     1     -30.737  11.838   6.286  1.00  0.00    +0.001 A 
ATOM     20  C   UNL     1     -28.366  11.884   5.924  1.00  0.00    +0.009 A 
ATOM     21  C   UNL     1     -26.979   9.965   6.418  1.00  0.00    +0.009 A 
ATOM     22  C   UNL     1     -29.602  12.520   5.875  1.00  0.00    +0.001 A 
ENDBRANCH  11  13
ENDBRANCH   2   9
TORSDOF 3
ENDMDL
