REMARK SMILES Oc1nnc(-c2ccccc2)c2ccccc12
REMARK SMILES IDX 2 1 17 2 16 3 15 4 14 5 13 6 12 7 5 8 4 9 3 10 1 11 6 13
REMARK SMILES IDX 7 14 11 15 8 16 10 17 9 18
REMARK H PARENT 1 12
ROOT
ATOM      1  C   UNL     1      -2.522  -1.688   0.073  1.00  0.00    +0.238 A 
ATOM      2  C   UNL     1      -2.325  -0.313  -0.022  1.00  0.00    +0.048 A 
ATOM      3  C   UNL     1      -3.388   0.613  -0.092  1.00  0.00    +0.014 A 
ATOM      4  C   UNL     1      -3.143   1.983  -0.172  1.00  0.00    +0.001 A 
ATOM      5  C   UNL     1      -1.834   2.448  -0.179  1.00  0.00    +0.001 A 
ATOM      6  C   UNL     1      -0.772   1.544  -0.112  1.00  0.00    +0.011 A 
ATOM      7  C   UNL     1      -0.992   0.144  -0.042  1.00  0.00    +0.015 A 
ATOM      8  C   UNL     1       0.028  -0.832   0.024  1.00  0.00    +0.101 A 
ATOM      9  N   UNL     1      -0.246  -2.160   0.128  1.00  0.00    -0.146 NA
ATOM     10  N   UNL     1      -1.532  -2.593   0.151  1.00  0.00    -0.111 NA
ENDROOT
BRANCH   1  11
ATOM     11  O   UNL     1      -3.772  -2.229   0.100  1.00  0.00    -0.492 OA
ATOM     12  H   UNL     1      -3.561  -3.178   0.170  1.00  0.00    +0.295 HD
ENDBRANCH   1  11
BRANCH   8  13
ATOM     13  C   UNL     1       1.465  -0.524  -0.015  1.00  0.00    +0.003 A 
ATOM     14  C   UNL     1       2.067  -0.000  -1.172  1.00  0.00    +0.010 A 
ATOM     15  C   UNL     1       2.278  -0.768   1.104  1.00  0.00    +0.010 A 
ATOM     16  C   UNL     1       3.433   0.290  -1.201  1.00  0.00    +0.001 A 
ATOM     17  C   UNL     1       3.644  -0.477   1.076  1.00  0.00    +0.001 A 
ATOM     18  C   UNL     1       4.220   0.055  -0.076  1.00  0.00    +0.000 A 
ENDBRANCH   8  13
TORSDOF 2
