MODEL 1
REMARK VINA RESULT:    -9.001      0.000      0.000
REMARK INTER + INTRA:         -13.182
REMARK INTER:                 -12.158
REMARK INTRA:                  -1.024
REMARK UNBOUND:                -1.024
REMARK SMILES O=c1cc(CO)oc([C@@H](Nc2ccccc2)c2ccccc2)c1O
REMARK SMILES IDX 4 1 3 2 2 3 1 4 23 5 8 6 7 7 5 8 6 9 9 11 10 12 11 14 12 15
REMARK SMILES IDX 16 16 13 17 15 18 14 19 17 20 18 21 22 22 19 23 21 24 20 25
REMARK SMILES IDX 24 26
REMARK H PARENT 6 10 10 13 24 27
ROOT
ATOM      1  C   UNL     1     -33.432   6.653   6.914  1.00  0.00    +0.133 A 
ATOM      2  C   UNL     1     -33.419   6.148   5.673  1.00  0.00    +0.101 A 
ATOM      3  C   UNL     1     -33.967   4.804   5.456  1.00  0.00    +0.227 A 
ATOM      4  O   UNL     1     -33.991   4.274   4.349  1.00  0.00    -0.286 OA
ATOM      5  C   UNL     1     -34.499   4.080   6.636  1.00  0.00    +0.205 A 
ATOM      6  C   UNL     1     -34.457   4.682   7.835  1.00  0.00    +0.176 A 
ATOM      7  O   UNL     1     -33.938   5.964   8.005  1.00  0.00    -0.457 OA
ENDROOT
BRANCH   1   8
ATOM      8  C   UNL     1     -32.898   8.013   7.249  1.00  0.00    +0.231 C 
BRANCH   8   9
ATOM      9  O   UNL     1     -33.942   8.814   7.789  1.00  0.00    -0.388 OA
ATOM     10  H   UNL     1     -34.419   8.254   8.427  1.00  0.00    +0.211 HD
ENDBRANCH   8   9
ENDBRANCH   1   8
BRANCH   6  11
ATOM     11  C   UNL     1     -34.965   4.020   9.105  1.00  0.00    +0.181 C 
BRANCH  11  12
ATOM     12  N   UNL     1     -33.999   4.205  10.201  1.00  0.00    -0.371 N 
ATOM     13  H   UNL     1     -34.413   4.715  10.977  1.00  0.00    +0.161 HD
BRANCH  12  14
ATOM     14  C   UNL     1     -33.206   3.159  10.681  1.00  0.00    +0.035 A 
ATOM     15  C   UNL     1     -32.095   2.774   9.912  1.00  0.00    +0.026 A 
ATOM     16  C   UNL     1     -33.508   2.384  11.806  1.00  0.00    +0.026 A 
ATOM     17  C   UNL     1     -31.285   1.697  10.283  1.00  0.00    +0.002 A 
ATOM     18  C   UNL     1     -32.700   1.305  12.183  1.00  0.00    +0.002 A 
ATOM     19  C   UNL     1     -31.585   0.963  11.424  1.00  0.00    +0.000 A 
ENDBRANCH  12  14
ENDBRANCH  11  12
BRANCH  11  20
ATOM     20  C   UNL     1     -36.318   4.610   9.514  1.00  0.00    -0.018 A 
ATOM     21  C   UNL     1     -36.390   5.496  10.602  1.00  0.00    +0.006 A 
ATOM     22  C   UNL     1     -37.511   4.263   8.854  1.00  0.00    +0.006 A 
ATOM     23  C   UNL     1     -37.614   6.032  11.007  1.00  0.00    +0.000 A 
ATOM     24  C   UNL     1     -38.734   4.799   9.260  1.00  0.00    +0.000 A 
ATOM     25  C   UNL     1     -38.785   5.684  10.335  1.00  0.00    +0.000 A 
ENDBRANCH  11  20
ENDBRANCH   6  11
BRANCH   5  26
ATOM     26  O   UNL     1     -35.013   2.812   6.435  1.00  0.00    -0.502 OA
ATOM     27  H   UNL     1     -34.223   2.235   6.340  1.00  0.00    +0.293 HD
ENDBRANCH   5  26
TORSDOF 7
ENDMDL
MODEL 2
REMARK VINA RESULT:    -8.858      0.928      4.757
REMARK INTER + INTRA:         -12.989
REMARK INTER:                 -11.817
REMARK INTRA:                  -1.172
REMARK UNBOUND:                -1.024
REMARK SMILES O=c1cc(CO)oc([C@@H](Nc2ccccc2)c2ccccc2)c1O
REMARK SMILES IDX 4 1 3 2 2 3 1 4 23 5 8 6 7 7 5 8 6 9 9 11 10 12 11 14 12 15
REMARK SMILES IDX 16 16 13 17 15 18 14 19 17 20 18 21 22 22 19 23 21 24 20 25
REMARK SMILES IDX 24 26
REMARK H PARENT 6 10 10 13 24 27
ROOT
ATOM      1  C   UNL     1     -33.098   6.668   6.836  1.00  0.00    +0.133 A 
ATOM      2  C   UNL     1     -33.379   6.129   5.641  1.00  0.00    +0.101 A 
ATOM      3  C   UNL     1     -33.997   4.799   5.598  1.00  0.00    +0.227 A 
ATOM      4  O   UNL     1     -34.284   4.242   4.543  1.00  0.00    -0.286 OA
ATOM      5  C   UNL     1     -34.267   4.124   6.891  1.00  0.00    +0.205 A 
ATOM      6  C   UNL     1     -33.939   4.756   8.029  1.00  0.00    +0.176 A 
ATOM      7  O   UNL     1     -33.362   6.024   8.035  1.00  0.00    -0.457 OA
ENDROOT
BRANCH   1   8
ATOM      8  C   UNL     1     -32.467   8.017   6.997  1.00  0.00    +0.231 C 
BRANCH   8   9
ATOM      9  O   UNL     1     -33.373   8.890   7.660  1.00  0.00    -0.388 OA
ATOM     10  H   UNL     1     -33.412   9.705   7.128  1.00  0.00    +0.211 HD
ENDBRANCH   8   9
ENDBRANCH   1   8
BRANCH   6  11
ATOM     11  C   UNL     1     -34.163   4.145   9.402  1.00  0.00    +0.181 C 
BRANCH  11  12
ATOM     12  N   UNL     1     -35.545   3.648   9.522  1.00  0.00    -0.371 N 
ATOM     13  H   UNL     1     -35.598   2.853  10.154  1.00  0.00    +0.161 HD
BRANCH  12  14
ATOM     14  C   UNL     1     -36.630   4.504   9.732  1.00  0.00    +0.035 A 
ATOM     15  C   UNL     1     -37.826   4.220   9.053  1.00  0.00    +0.026 A 
ATOM     16  C   UNL     1     -36.576   5.691  10.470  1.00  0.00    +0.026 A 
ATOM     17  C   UNL     1     -38.942   5.057   9.153  1.00  0.00    +0.002 A 
ATOM     18  C   UNL     1     -37.689   6.532  10.575  1.00  0.00    +0.002 A 
ATOM     19  C   UNL     1     -38.875   6.213   9.920  1.00  0.00    +0.000 A 
ENDBRANCH  12  14
ENDBRANCH  11  12
BRANCH  11  20
ATOM     20  C   UNL     1     -33.184   2.991   9.643  1.00  0.00    -0.018 A 
ATOM     21  C   UNL     1     -31.802   3.239   9.634  1.00  0.00    +0.006 A 
ATOM     22  C   UNL     1     -33.627   1.671   9.841  1.00  0.00    +0.006 A 
ATOM     23  C   UNL     1     -30.889   2.201   9.831  1.00  0.00    +0.000 A 
ATOM     24  C   UNL     1     -32.713   0.634  10.038  1.00  0.00    +0.000 A 
ATOM     25  C   UNL     1     -31.346   0.900  10.034  1.00  0.00    +0.000 A 
ENDBRANCH  11  20
ENDBRANCH   6  11
BRANCH   5  26
ATOM     26  O   UNL     1     -34.846   2.869   6.853  1.00  0.00    -0.502 OA
ATOM     27  H   UNL     1     -34.090   2.249   6.759  1.00  0.00    +0.293 HD
ENDBRANCH   5  26
TORSDOF 7
ENDMDL
MODEL 3
REMARK VINA RESULT:    -8.734      7.368     10.204
REMARK INTER + INTRA:         -12.822
REMARK INTER:                 -11.792
REMARK INTRA:                  -1.031
REMARK UNBOUND:                -1.024
REMARK SMILES O=c1cc(CO)oc([C@@H](Nc2ccccc2)c2ccccc2)c1O
REMARK SMILES IDX 4 1 3 2 2 3 1 4 23 5 8 6 7 7 5 8 6 9 9 11 10 12 11 14 12 15
REMARK SMILES IDX 16 16 13 17 15 18 14 19 17 20 18 21 22 22 19 23 21 24 20 25
REMARK SMILES IDX 24 26
REMARK H PARENT 6 10 10 13 24 27
ROOT
ATOM      1  C   UNL     1     -24.768  -0.367  10.210  1.00  0.00    +0.133 A 
ATOM      2  C   UNL     1     -23.483  -0.072  10.448  1.00  0.00    +0.101 A 
ATOM      3  C   UNL     1     -23.133   1.307  10.807  1.00  0.00    +0.227 A 
ATOM      4  O   UNL     1     -21.980   1.654  11.041  1.00  0.00    -0.286 OA
ATOM      5  C   UNL     1     -24.234   2.299  10.876  1.00  0.00    +0.205 A 
ATOM      6  C   UNL     1     -25.486   1.893  10.612  1.00  0.00    +0.176 A 
ATOM      7  O   UNL     1     -25.785   0.572  10.284  1.00  0.00    -0.457 OA
ENDROOT
BRANCH   1   8
ATOM      8  C   UNL     1     -25.236  -1.740   9.835  1.00  0.00    +0.231 C 
BRANCH   8   9
ATOM      9  O   UNL     1     -25.605  -1.760   8.462  1.00  0.00    -0.388 OA
ATOM     10  H   UNL     1     -24.842  -2.118   7.975  1.00  0.00    +0.211 HD
ENDBRANCH   8   9
ENDBRANCH   1   8
BRANCH   6  11
ATOM     11  C   UNL     1     -26.679   2.834  10.644  1.00  0.00    +0.181 C 
BRANCH  11  12
ATOM     12  N   UNL     1     -27.121   3.147   9.274  1.00  0.00    -0.371 N 
ATOM     13  H   UNL     1     -28.073   2.828   9.111  1.00  0.00    +0.161 HD
BRANCH  12  14
ATOM     14  C   UNL     1     -26.931   4.407   8.699  1.00  0.00    +0.035 A 
ATOM     15  C   UNL     1     -25.623   4.770   8.339  1.00  0.00    +0.026 A 
ATOM     16  C   UNL     1     -27.927   5.380   8.569  1.00  0.00    +0.026 A 
ATOM     17  C   UNL     1     -25.330   6.033   7.816  1.00  0.00    +0.002 A 
ATOM     18  C   UNL     1     -27.641   6.647   8.045  1.00  0.00    +0.002 A 
ATOM     19  C   UNL     1     -26.343   6.972   7.665  1.00  0.00    +0.000 A 
ENDBRANCH  12  14
ENDBRANCH  11  12
BRANCH  11  20
ATOM     20  C   UNL     1     -27.839   2.205  11.423  1.00  0.00    -0.018 A 
ATOM     21  C   UNL     1     -27.728   2.027  12.812  1.00  0.00    +0.006 A 
ATOM     22  C   UNL     1     -29.010   1.762  10.782  1.00  0.00    +0.006 A 
ATOM     23  C   UNL     1     -28.764   1.438  13.540  1.00  0.00    +0.000 A 
ATOM     24  C   UNL     1     -30.043   1.173  11.512  1.00  0.00    +0.000 A 
ATOM     25  C   UNL     1     -29.921   1.012  12.890  1.00  0.00    +0.000 A 
ENDBRANCH  11  20
ENDBRANCH   6  11
BRANCH   5  26
ATOM     26  O   UNL     1     -23.907   3.600  11.211  1.00  0.00    -0.502 OA
ATOM     27  H   UNL     1     -23.249   3.514  11.936  1.00  0.00    +0.293 HD
ENDBRANCH   5  26
TORSDOF 7
ENDMDL
MODEL 4
REMARK VINA RESULT:    -8.641      2.151      6.113
REMARK INTER + INTRA:         -12.697
REMARK INTER:                 -11.565
REMARK INTRA:                  -1.131
REMARK UNBOUND:                -1.024
REMARK SMILES O=c1cc(CO)oc([C@@H](Nc2ccccc2)c2ccccc2)c1O
REMARK SMILES IDX 4 1 3 2 2 3 1 4 23 5 8 6 7 7 5 8 6 9 9 11 10 12 11 14 12 15
REMARK SMILES IDX 16 16 13 17 15 18 14 19 17 20 18 21 22 22 19 23 21 24 20 25
REMARK SMILES IDX 24 26
REMARK H PARENT 6 10 10 13 24 27
ROOT
ATOM      1  C   UNL     1     -37.609   4.761   9.371  1.00  0.00    +0.133 A 
ATOM      2  C   UNL     1     -37.619   5.422  10.536  1.00  0.00    +0.101 A 
ATOM      3  C   UNL     1     -36.337   5.730  11.180  1.00  0.00    +0.227 A 
ATOM      4  O   UNL     1     -36.265   6.332  12.247  1.00  0.00    -0.286 OA
ATOM      5  C   UNL     1     -35.100   5.279  10.498  1.00  0.00    +0.205 A 
ATOM      6  C   UNL     1     -35.208   4.619   9.335  1.00  0.00    +0.176 A 
ATOM      7  O   UNL     1     -36.442   4.351   8.745  1.00  0.00    -0.457 OA
ENDROOT
BRANCH   1   8
ATOM      8  C   UNL     1     -38.858   4.394   8.628  1.00  0.00    +0.231 C 
BRANCH   8   9
ATOM      9  O   UNL     1     -39.941   4.283   9.542  1.00  0.00    -0.388 OA
ATOM     10  H   UNL     1     -39.767   4.923  10.256  1.00  0.00    +0.211 HD
ENDBRANCH   8   9
ENDBRANCH   1   8
BRANCH   6  11
ATOM     11  C   UNL     1     -34.003   4.105   8.566  1.00  0.00    +0.181 C 
BRANCH  11  12
ATOM     12  N   UNL     1     -32.992   5.168   8.428  1.00  0.00    -0.371 N 
ATOM     13  H   UNL     1     -32.066   4.832   8.681  1.00  0.00    +0.161 HD
BRANCH  12  14
ATOM     14  C   UNL     1     -32.915   5.982   7.295  1.00  0.00    +0.035 A 
ATOM     15  C   UNL     1     -33.795   5.710   6.234  1.00  0.00    +0.026 A 
ATOM     16  C   UNL     1     -31.945   6.968   7.088  1.00  0.00    +0.026 A 
ATOM     17  C   UNL     1     -33.747   6.431   5.037  1.00  0.00    +0.002 A 
ATOM     18  C   UNL     1     -31.892   7.695   5.892  1.00  0.00    +0.002 A 
ATOM     19  C   UNL     1     -32.796   7.430   4.868  1.00  0.00    +0.000 A 
ENDBRANCH  12  14
ENDBRANCH  11  12
BRANCH  11  20
ATOM     20  C   UNL     1     -33.381   2.901   9.282  1.00  0.00    -0.018 A 
ATOM     21  C   UNL     1     -32.003   2.890   9.554  1.00  0.00    +0.006 A 
ATOM     22  C   UNL     1     -34.146   1.779   9.647  1.00  0.00    +0.006 A 
ATOM     23  C   UNL     1     -31.410   1.796  10.188  1.00  0.00    +0.000 A 
ATOM     24  C   UNL     1     -33.551   0.686  10.280  1.00  0.00    +0.000 A 
ATOM     25  C   UNL     1     -32.185   0.695  10.551  1.00  0.00    +0.000 A 
ENDBRANCH  11  20
ENDBRANCH   6  11
BRANCH   5  26
ATOM     26  O   UNL     1     -33.890   5.565  11.105  1.00  0.00    -0.502 OA
ATOM     27  H   UNL     1     -33.217   5.402  10.408  1.00  0.00    +0.293 HD
ENDBRANCH   5  26
TORSDOF 7
ENDMDL
MODEL 5
REMARK VINA RESULT:    -8.151      4.759      7.949
REMARK INTER + INTRA:         -12.034
REMARK INTER:                 -10.869
REMARK INTRA:                  -1.166
REMARK UNBOUND:                -1.024
REMARK SMILES O=c1cc(CO)oc([C@@H](Nc2ccccc2)c2ccccc2)c1O
REMARK SMILES IDX 4 1 3 2 2 3 1 4 23 5 8 6 7 7 5 8 6 9 9 11 10 12 11 14 12 15
REMARK SMILES IDX 16 16 13 17 15 18 14 19 17 20 18 21 22 22 19 23 21 24 20 25
REMARK SMILES IDX 24 26
REMARK H PARENT 6 10 10 13 24 27
ROOT
ATOM      1  C   UNL     1     -26.311   2.791  10.260  1.00  0.00    +0.133 A 
ATOM      2  C   UNL     1     -25.696   1.732   9.718  1.00  0.00    +0.101 A 
ATOM      3  C   UNL     1     -26.419   0.457   9.651  1.00  0.00    +0.227 A 
ATOM      4  O   UNL     1     -25.923  -0.556   9.168  1.00  0.00    -0.286 OA
ATOM      5  C   UNL     1     -27.797   0.419  10.200  1.00  0.00    +0.205 A 
ATOM      6  C   UNL     1     -28.313   1.541  10.726  1.00  0.00    +0.176 A 
ATOM      7  O   UNL     1     -27.601   2.738  10.765  1.00  0.00    -0.457 OA
ENDROOT
BRANCH   1   8
ATOM      8  C   UNL     1     -25.667   4.139  10.380  1.00  0.00    +0.231 C 
BRANCH   8   9
ATOM      9  O   UNL     1     -26.495   5.119   9.766  1.00  0.00    -0.388 OA
ATOM     10  H   UNL     1     -26.976   5.565  10.486  1.00  0.00    +0.211 HD
ENDBRANCH   8   9
ENDBRANCH   1   8
BRANCH   6  11
ATOM     11  C   UNL     1     -29.708   1.601  11.325  1.00  0.00    +0.181 C 
BRANCH  11  12
ATOM     12  N   UNL     1     -30.670   0.902  10.454  1.00  0.00    -0.371 N 
ATOM     13  H   UNL     1     -30.855  -0.040  10.790  1.00  0.00    +0.161 HD
BRANCH  12  14
ATOM     14  C   UNL     1     -31.856   1.501  10.022  1.00  0.00    +0.035 A 
ATOM     15  C   UNL     1     -31.807   2.855   9.650  1.00  0.00    +0.026 A 
ATOM     16  C   UNL     1     -33.113   0.888  10.051  1.00  0.00    +0.026 A 
ATOM     17  C   UNL     1     -32.957   3.552   9.266  1.00  0.00    +0.002 A 
ATOM     18  C   UNL     1     -34.268   1.580   9.667  1.00  0.00    +0.002 A 
ATOM     19  C   UNL     1     -34.190   2.911   9.270  1.00  0.00    +0.000 A 
ENDBRANCH  12  14
ENDBRANCH  11  12
BRANCH  11  20
ATOM     20  C   UNL     1     -29.724   0.962  12.717  1.00  0.00    -0.018 A 
ATOM     21  C   UNL     1     -30.540  -0.154  12.960  1.00  0.00    +0.006 A 
ATOM     22  C   UNL     1     -28.967   1.484  13.782  1.00  0.00    +0.006 A 
ATOM     23  C   UNL     1     -30.587  -0.742  14.226  1.00  0.00    +0.000 A 
ATOM     24  C   UNL     1     -29.016   0.895  15.047  1.00  0.00    +0.000 A 
ATOM     25  C   UNL     1     -29.824  -0.218  15.268  1.00  0.00    +0.000 A 
ENDBRANCH  11  20
ENDBRANCH   6  11
BRANCH   5  26
ATOM     26  O   UNL     1     -28.479  -0.782  10.142  1.00  0.00    -0.502 OA
ATOM     27  H   UNL     1     -27.813  -1.460  10.393  1.00  0.00    +0.293 HD
ENDBRANCH   5  26
TORSDOF 7
ENDMDL
MODEL 6
REMARK VINA RESULT:    -8.123      2.287      5.828
REMARK INTER + INTRA:         -11.996
REMARK INTER:                 -11.380
REMARK INTRA:                  -0.616
REMARK UNBOUND:                -1.024
REMARK SMILES O=c1cc(CO)oc([C@@H](Nc2ccccc2)c2ccccc2)c1O
REMARK SMILES IDX 4 1 3 2 2 3 1 4 23 5 8 6 7 7 5 8 6 9 9 11 10 12 11 14 12 15
REMARK SMILES IDX 16 16 13 17 15 18 14 19 17 20 18 21 22 22 19 23 21 24 20 25
REMARK SMILES IDX 24 26
REMARK H PARENT 6 10 10 13 24 27
ROOT
ATOM      1  C   UNL     1     -31.132   2.770   9.605  1.00  0.00    +0.133 A 
ATOM      2  C   UNL     1     -31.313   1.530  10.078  1.00  0.00    +0.101 A 
ATOM      3  C   UNL     1     -32.673   0.979  10.105  1.00  0.00    +0.227 A 
ATOM      4  O   UNL     1     -32.918  -0.148  10.523  1.00  0.00    -0.286 OA
ATOM      5  C   UNL     1     -33.773   1.842   9.609  1.00  0.00    +0.205 A 
ATOM      6  C   UNL     1     -33.477   3.072   9.161  1.00  0.00    +0.176 A 
ATOM      7  O   UNL     1     -32.172   3.561   9.140  1.00  0.00    -0.457 OA
ENDROOT
BRANCH   1   8
ATOM      8  C   UNL     1     -29.789   3.431   9.532  1.00  0.00    +0.231 C 
BRANCH   8   9
ATOM      9  O   UNL     1     -28.784   2.512   9.944  1.00  0.00    -0.388 OA
ATOM     10  H   UNL     1     -29.077   2.147  10.798  1.00  0.00    +0.211 HD
ENDBRANCH   8   9
ENDBRANCH   1   8
BRANCH   6  11
ATOM     11  C   UNL     1     -34.533   4.035   8.645  1.00  0.00    +0.181 C 
BRANCH  11  12
ATOM     12  N   UNL     1     -35.050   4.866   9.745  1.00  0.00    -0.371 N 
ATOM     13  H   UNL     1     -34.531   5.737   9.826  1.00  0.00    +0.161 HD
BRANCH  12  14
ATOM     14  C   UNL     1     -36.417   5.103   9.922  1.00  0.00    +0.035 A 
ATOM     15  C   UNL     1     -37.142   4.189  10.703  1.00  0.00    +0.026 A 
ATOM     16  C   UNL     1     -37.139   6.113   9.277  1.00  0.00    +0.026 A 
ATOM     17  C   UNL     1     -38.524   4.311  10.882  1.00  0.00    +0.002 A 
ATOM     18  C   UNL     1     -38.522   6.241   9.452  1.00  0.00    +0.002 A 
ATOM     19  C   UNL     1     -39.214   5.343  10.258  1.00  0.00    +0.000 A 
ENDBRANCH  12  14
ENDBRANCH  11  12
BRANCH  11  20
ATOM     20  C   UNL     1     -33.949   4.939   7.554  1.00  0.00    -0.018 A 
ATOM     21  C   UNL     1     -34.296   4.722   6.211  1.00  0.00    +0.006 A 
ATOM     22  C   UNL     1     -33.038   5.968   7.852  1.00  0.00    +0.006 A 
ATOM     23  C   UNL     1     -33.762   5.520   5.197  1.00  0.00    +0.000 A 
ATOM     24  C   UNL     1     -32.504   6.765   6.838  1.00  0.00    +0.000 A 
ATOM     25  C   UNL     1     -32.867   6.541   5.512  1.00  0.00    +0.000 A 
ENDBRANCH  11  20
ENDBRANCH   6  11
BRANCH   5  26
ATOM     26  O   UNL     1     -35.056   1.326   9.636  1.00  0.00    -0.502 OA
ATOM     27  H   UNL     1     -35.499   1.799  10.375  1.00  0.00    +0.293 HD
ENDBRANCH   5  26
TORSDOF 7
ENDMDL
MODEL 7
REMARK VINA RESULT:    -8.059      2.554      5.402
REMARK INTER + INTRA:         -11.909
REMARK INTER:                 -11.249
REMARK INTRA:                  -0.661
REMARK UNBOUND:                -1.024
REMARK SMILES O=c1cc(CO)oc([C@@H](Nc2ccccc2)c2ccccc2)c1O
REMARK SMILES IDX 4 1 3 2 2 3 1 4 23 5 8 6 7 7 5 8 6 9 9 11 10 12 11 14 12 15
REMARK SMILES IDX 16 16 13 17 15 18 14 19 17 20 18 21 22 22 19 23 21 24 20 25
REMARK SMILES IDX 24 26
REMARK H PARENT 6 10 10 13 24 27
ROOT
ATOM      1  C   UNL     1     -37.724   2.511  10.927  1.00  0.00    +0.133 A 
ATOM      2  C   UNL     1     -38.466   3.613  11.102  1.00  0.00    +0.101 A 
ATOM      3  C   UNL     1     -37.822   4.923  10.965  1.00  0.00    +0.227 A 
ATOM      4  O   UNL     1     -38.435   5.976  11.110  1.00  0.00    -0.286 OA
ATOM      5  C   UNL     1     -36.373   4.947  10.645  1.00  0.00    +0.205 A 
ATOM      6  C   UNL     1     -35.727   3.780  10.496  1.00  0.00    +0.176 A 
ATOM      7  O   UNL     1     -36.372   2.552  10.623  1.00  0.00    -0.457 OA
ENDROOT
BRANCH   1   8
ATOM      8  C   UNL     1     -38.279   1.124  11.044  1.00  0.00    +0.231 C 
BRANCH   8   9
ATOM      9  O   UNL     1     -39.700   1.177  11.031  1.00  0.00    -0.388 OA
ATOM     10  H   UNL     1     -40.011   0.254  11.061  1.00  0.00    +0.211 HD
ENDBRANCH   8   9
ENDBRANCH   1   8
BRANCH   6  11
ATOM     11  C   UNL     1     -34.243   3.698  10.180  1.00  0.00    +0.181 C 
BRANCH  11  12
ATOM     12  N   UNL     1     -33.832   2.293  10.013  1.00  0.00    -0.371 N 
ATOM     13  H   UNL     1     -33.876   2.008   9.038  1.00  0.00    +0.161 HD
BRANCH  12  14
ATOM     14  C   UNL     1     -32.679   1.777  10.613  1.00  0.00    +0.035 A 
ATOM     15  C   UNL     1     -32.772   1.355  11.949  1.00  0.00    +0.026 A 
ATOM     16  C   UNL     1     -31.412   1.765  10.022  1.00  0.00    +0.026 A 
ATOM     17  C   UNL     1     -31.656   0.885  12.649  1.00  0.00    +0.002 A 
ATOM     18  C   UNL     1     -30.290   1.295  10.716  1.00  0.00    +0.002 A 
ATOM     19  C   UNL     1     -30.413   0.850  12.029  1.00  0.00    +0.000 A 
ENDBRANCH  12  14
ENDBRANCH  11  12
BRANCH  11  20
ATOM     20  C   UNL     1     -33.921   4.477   8.901  1.00  0.00    -0.018 A 
ATOM     21  C   UNL     1     -34.656   4.227   7.730  1.00  0.00    +0.006 A 
ATOM     22  C   UNL     1     -32.879   5.421   8.849  1.00  0.00    +0.006 A 
ATOM     23  C   UNL     1     -34.368   4.910   6.547  1.00  0.00    +0.000 A 
ATOM     24  C   UNL     1     -32.593   6.103   7.665  1.00  0.00    +0.000 A 
ATOM     25  C   UNL     1     -33.338   5.848   6.515  1.00  0.00    +0.000 A 
ENDBRANCH  11  20
ENDBRANCH   6  11
BRANCH   5  26
ATOM     26  O   UNL     1     -35.762   6.181  10.519  1.00  0.00    -0.502 OA
ATOM     27  H   UNL     1     -36.216   6.752  11.178  1.00  0.00    +0.293 HD
ENDBRANCH   5  26
TORSDOF 7
ENDMDL
MODEL 8
REMARK VINA RESULT:    -7.850      5.557      9.209
REMARK INTER + INTRA:         -11.628
REMARK INTER:                 -10.733
REMARK INTRA:                  -0.894
REMARK UNBOUND:                -1.024
REMARK SMILES O=c1cc(CO)oc([C@@H](Nc2ccccc2)c2ccccc2)c1O
REMARK SMILES IDX 4 1 3 2 2 3 1 4 23 5 8 6 7 7 5 8 6 9 9 11 10 12 11 14 12 15
REMARK SMILES IDX 16 16 13 17 15 18 14 19 17 20 18 21 22 22 19 23 21 24 20 25
REMARK SMILES IDX 24 26
REMARK H PARENT 6 10 10 13 24 27
ROOT
ATOM      1  C   UNL     1     -25.816  -0.168  10.746  1.00  0.00    +0.133 A 
ATOM      2  C   UNL     1     -24.837   0.743  10.817  1.00  0.00    +0.101 A 
ATOM      3  C   UNL     1     -25.142   2.060  11.387  1.00  0.00    +0.227 A 
ATOM      4  O   UNL     1     -24.298   2.946  11.486  1.00  0.00    -0.286 OA
ATOM      5  C   UNL     1     -26.531   2.305  11.846  1.00  0.00    +0.205 A 
ATOM      6  C   UNL     1     -27.434   1.320  11.722  1.00  0.00    +0.176 A 
ATOM      7  O   UNL     1     -27.108   0.076  11.185  1.00  0.00    -0.457 OA
ENDROOT
BRANCH   1   8
ATOM      8  C   UNL     1     -25.616  -1.542  10.182  1.00  0.00    +0.231 C 
BRANCH   8   9
ATOM      9  O   UNL     1     -25.688  -1.489   8.763  1.00  0.00    -0.388 OA
ATOM     10  H   UNL     1     -26.435  -2.057   8.503  1.00  0.00    +0.211 HD
ENDBRANCH   8   9
ENDBRANCH   1   8
BRANCH   6  11
ATOM     11  C   UNL     1     -28.884   1.475  12.151  1.00  0.00    +0.181 C 
BRANCH  11  12
ATOM     12  N   UNL     1     -29.785   0.951  11.111  1.00  0.00    -0.371 N 
ATOM     13  H   UNL     1     -29.785  -0.066  11.100  1.00  0.00    +0.161 HD
BRANCH  12  14
ATOM     14  C   UNL     1     -31.085   1.433  10.938  1.00  0.00    +0.035 A 
ATOM     15  C   UNL     1     -31.333   2.263   9.832  1.00  0.00    +0.026 A 
ATOM     16  C   UNL     1     -32.129   1.254  11.852  1.00  0.00    +0.026 A 
ATOM     17  C   UNL     1     -32.587   2.842   9.615  1.00  0.00    +0.002 A 
ATOM     18  C   UNL     1     -33.387   1.830  11.641  1.00  0.00    +0.002 A 
ATOM     19  C   UNL     1     -33.618   2.621  10.520  1.00  0.00    +0.000 A 
ENDBRANCH  12  14
ENDBRANCH  11  12
BRANCH  11  20
ATOM     20  C   UNL     1     -29.138   0.732  13.467  1.00  0.00    -0.018 A 
ATOM     21  C   UNL     1     -29.375  -0.652  13.449  1.00  0.00    +0.006 A 
ATOM     22  C   UNL     1     -29.178   1.403  14.703  1.00  0.00    +0.006 A 
ATOM     23  C   UNL     1     -29.629  -1.348  14.633  1.00  0.00    +0.000 A 
ATOM     24  C   UNL     1     -29.432   0.705  15.885  1.00  0.00    +0.000 A 
ATOM     25  C   UNL     1     -29.656  -0.669  15.850  1.00  0.00    +0.000 A 
ENDBRANCH  11  20
ENDBRANCH   6  11
BRANCH   5  26
ATOM     26  O   UNL     1     -26.822   3.547  12.381  1.00  0.00    -0.502 OA
ATOM     27  H   UNL     1     -25.967   4.031  12.367  1.00  0.00    +0.293 HD
ENDBRANCH   5  26
TORSDOF 7
ENDMDL
MODEL 9
REMARK VINA RESULT:    -7.746      6.446      8.626
REMARK INTER + INTRA:         -11.487
REMARK INTER:                 -11.396
REMARK INTRA:                  -0.092
REMARK UNBOUND:                -1.024
REMARK SMILES O=c1cc(CO)oc([C@@H](Nc2ccccc2)c2ccccc2)c1O
REMARK SMILES IDX 4 1 3 2 2 3 1 4 23 5 8 6 7 7 5 8 6 9 9 11 10 12 11 14 12 15
REMARK SMILES IDX 16 16 13 17 15 18 14 19 17 20 18 21 22 22 19 23 21 24 20 25
REMARK SMILES IDX 24 26
REMARK H PARENT 6 10 10 13 24 27
ROOT
ATOM      1  C   UNL     1     -26.353   3.427   9.487  1.00  0.00    +0.133 A 
ATOM      2  C   UNL     1     -25.101   3.690   9.882  1.00  0.00    +0.101 A 
ATOM      3  C   UNL     1     -24.387   2.683  10.676  1.00  0.00    +0.227 A 
ATOM      4  O   UNL     1     -23.239   2.851  11.073  1.00  0.00    -0.286 OA
ATOM      5  C   UNL     1     -25.108   1.428  11.001  1.00  0.00    +0.205 A 
ATOM      6  C   UNL     1     -26.365   1.273  10.557  1.00  0.00    +0.176 A 
ATOM      7  O   UNL     1     -27.010   2.246   9.796  1.00  0.00    -0.457 OA
ENDROOT
BRANCH   1   8
ATOM      8  C   UNL     1     -27.173   4.383   8.675  1.00  0.00    +0.231 C 
BRANCH   8   9
ATOM      9  O   UNL     1     -26.895   5.716   9.085  1.00  0.00    -0.388 OA
ATOM     10  H   UNL     1     -26.958   6.270   8.286  1.00  0.00    +0.211 HD
ENDBRANCH   8   9
ENDBRANCH   1   8
BRANCH   6  11
ATOM     11  C   UNL     1     -27.191   0.030  10.846  1.00  0.00    +0.181 C 
BRANCH  11  12
ATOM     12  N   UNL     1     -27.027  -0.377  12.253  1.00  0.00    -0.371 N 
ATOM     13  H   UNL     1     -26.098  -0.149  12.598  1.00  0.00    +0.161 HD
BRANCH  12  14
ATOM     14  C   UNL     1     -27.987  -0.092  13.228  1.00  0.00    +0.035 A 
ATOM     15  C   UNL     1     -28.948  -1.078  13.507  1.00  0.00    +0.026 A 
ATOM     16  C   UNL     1     -28.136   1.148  13.858  1.00  0.00    +0.026 A 
ATOM     17  C   UNL     1     -29.982  -0.855  14.421  1.00  0.00    +0.002 A 
ATOM     18  C   UNL     1     -29.169   1.377  14.775  1.00  0.00    +0.002 A 
ATOM     19  C   UNL     1     -30.091   0.374  15.060  1.00  0.00    +0.000 A 
ENDBRANCH  12  14
ENDBRANCH  11  12
BRANCH  11  20
ATOM     20  C   UNL     1     -28.673   0.292  10.562  1.00  0.00    -0.018 A 
ATOM     21  C   UNL     1     -29.461  -0.721   9.990  1.00  0.00    +0.006 A 
ATOM     22  C   UNL     1     -29.271   1.538  10.822  1.00  0.00    +0.006 A 
ATOM     23  C   UNL     1     -30.809  -0.501   9.703  1.00  0.00    +0.000 A 
ATOM     24  C   UNL     1     -30.620   1.757  10.534  1.00  0.00    +0.000 A 
ATOM     25  C   UNL     1     -31.388   0.738   9.976  1.00  0.00    +0.000 A 
ENDBRANCH  11  20
ENDBRANCH   6  11
BRANCH   5  26
ATOM     26  O   UNL     1     -24.439   0.479  11.752  1.00  0.00    -0.502 OA
ATOM     27  H   UNL     1     -23.830   0.042  11.116  1.00  0.00    +0.293 HD
ENDBRANCH   5  26
TORSDOF 7
ENDMDL
