MODEL 1
REMARK VINA RESULT:    -8.716      0.000      0.000
REMARK INTER + INTRA:         -11.390
REMARK INTER:                 -10.245
REMARK INTRA:                  -1.145
REMARK UNBOUND:                -1.145
REMARK SMILES O=C(O)c1ccccc1-c1c2ccc(=O)c(Br)c-2oc2c(Br)c(O)ccc12
REMARK SMILES IDX 4 1 9 2 8 3 7 4 6 5 5 6 2 7 1 8 3 9 10 11 11 12 27 13 12 14
REMARK SMILES IDX 18 15 20 16 26 17 13 18 16 19 19 20 21 21 25 22 14 23 23 24
REMARK SMILES IDX 15 25 17 26 22 27 24 28
REMARK H PARENT 3 10 24 29
ROOT
ATOM      1  C   UNL     1     -26.174   2.107  11.415  1.00  0.00    +0.067 A 
ATOM      2  C   UNL     1     -26.624   2.195  10.081  1.00  0.00    -0.002 A 
ATOM      3  C   UNL     1     -26.223   1.211   9.157  1.00  0.00    +0.009 A 
ATOM      4  C   UNL     1     -25.385   0.165   9.544  1.00  0.00    +0.001 A 
ATOM      5  C   UNL     1     -24.940   0.083  10.860  1.00  0.00    +0.001 A 
ATOM      6  C   UNL     1     -25.331   1.046  11.791  1.00  0.00    +0.016 A 
ENDROOT
BRANCH   1   7
ATOM      7  C   UNL     1     -26.560   3.122  12.431  1.00  0.00    +0.336 C 
ATOM      8  O   UNL     1     -26.010   4.180  12.667  1.00  0.00    -0.246 OA
BRANCH   7   9
ATOM      9  O   UNL     1     -27.661   2.754  13.114  1.00  0.00    -0.478 OA
ATOM     10  H   UNL     1     -28.180   2.239  12.460  1.00  0.00    +0.297 HD
ENDBRANCH   7   9
ENDBRANCH   1   7
BRANCH   2  11
ATOM     11  C   UNL     1     -27.546   3.257   9.590  1.00  0.00    +0.005 A 
ATOM     12  C   UNL     1     -27.051   4.406   9.054  1.00  0.00    +0.027 A 
ATOM     13  C   UNL     1     -29.023   3.109   9.669  1.00  0.00    +0.027 A 
ATOM     14  C   UNL     1     -25.606   4.645   8.943  1.00  0.00    +0.017 A 
ATOM     15  C   UNL     1     -27.956   5.466   8.575  1.00  0.00    +0.153 A 
ATOM     16  C   UNL     1     -29.848   4.137   9.206  1.00  0.00    +0.153 A 
ATOM     17  C   UNL     1     -29.625   1.954  10.201  1.00  0.00    +0.016 A 
ATOM     18  C   UNL     1     -25.116   5.772   8.420  1.00  0.00    +0.054 A 
ATOM     19  C   UNL     1     -27.487   6.612   8.042  1.00  0.00    +0.108 A 
ATOM     20  O   UNL     1     -29.330   5.284   8.669  1.00  0.00    -0.453 OA
ATOM     21  C   UNL     1     -31.245   4.021   9.276  1.00  0.00    +0.103 A 
ATOM     22  C   UNL     1     -31.015   1.834  10.271  1.00  0.00    +0.048 A 
ATOM     23  C   UNL     1     -26.015   6.837   7.922  1.00  0.00    +0.196 A 
ATOM     24  C   UNL     1     -31.818   2.868   9.809  1.00  0.00    +0.133 A 
ATOM     25  O   UNL     1     -25.522   7.848   7.432  1.00  0.00    -0.289 OA
ATOM     26 Br   UNL     1     -28.608   7.980   7.418  1.00  0.00    -0.042 Br
ATOM     27 Br   UNL     1     -32.374   5.419   8.647  1.00  0.00    -0.043 Br
BRANCH  24  28
ATOM     28  O   UNL     1     -33.170   2.692   9.905  1.00  0.00    -0.507 OA
ATOM     29  H   UNL     1     -33.325   1.789  10.236  1.00  0.00    +0.293 HD
ENDBRANCH  24  28
ENDBRANCH   2  11
TORSDOF 4
ENDMDL
MODEL 2
REMARK VINA RESULT:    -8.702      4.339      7.502
REMARK INTER + INTRA:         -11.373
REMARK INTER:                 -10.258
REMARK INTRA:                  -1.116
REMARK UNBOUND:                -1.145
REMARK SMILES O=C(O)c1ccccc1-c1c2ccc(=O)c(Br)c-2oc2c(Br)c(O)ccc12
REMARK SMILES IDX 4 1 9 2 8 3 7 4 6 5 5 6 2 7 1 8 3 9 10 11 11 12 27 13 12 14
REMARK SMILES IDX 18 15 20 16 26 17 13 18 16 19 19 20 21 21 25 22 14 23 23 24
REMARK SMILES IDX 15 25 17 26 22 27 24 28
REMARK H PARENT 3 10 24 29
ROOT
ATOM      1  C   UNL     1     -29.852   0.715  12.234  1.00  0.00    +0.067 A 
ATOM      2  C   UNL     1     -28.590   0.553  12.843  1.00  0.00    -0.002 A 
ATOM      3  C   UNL     1     -28.497   0.595  14.248  1.00  0.00    +0.009 A 
ATOM      4  C   UNL     1     -29.630   0.804  15.034  1.00  0.00    +0.001 A 
ATOM      5  C   UNL     1     -30.874   0.968  14.430  1.00  0.00    +0.001 A 
ATOM      6  C   UNL     1     -30.986   0.923  13.039  1.00  0.00    +0.016 A 
ENDROOT
BRANCH   1   7
ATOM      7  C   UNL     1     -30.008   0.687  10.756  1.00  0.00    +0.336 C 
ATOM      8  O   UNL     1     -30.227  -0.280  10.052  1.00  0.00    -0.246 OA
BRANCH   7   9
ATOM      9  O   UNL     1     -29.894   1.916  10.217  1.00  0.00    -0.478 OA
ATOM     10  H   UNL     1     -29.759   1.741   9.262  1.00  0.00    +0.297 HD
ENDBRANCH   7   9
ENDBRANCH   1   7
BRANCH   2  11
ATOM     11  C   UNL     1     -27.335   0.292  12.083  1.00  0.00    +0.005 A 
ATOM     12  C   UNL     1     -26.987  -0.980  11.744  1.00  0.00    +0.027 A 
ATOM     13  C   UNL     1     -26.424   1.393  11.675  1.00  0.00    +0.027 A 
ATOM     14  C   UNL     1     -27.820  -2.131  12.113  1.00  0.00    +0.017 A 
ATOM     15  C   UNL     1     -25.743  -1.247  11.001  1.00  0.00    +0.153 A 
ATOM     16  C   UNL     1     -25.253   1.098  10.973  1.00  0.00    +0.153 A 
ATOM     17  C   UNL     1     -26.705   2.738  11.975  1.00  0.00    +0.016 A 
ATOM     18  C   UNL     1     -27.480  -3.381  11.784  1.00  0.00    +0.054 A 
ATOM     19  C   UNL     1     -25.378  -2.499  10.657  1.00  0.00    +0.108 A 
ATOM     20  O   UNL     1     -24.921  -0.187  10.641  1.00  0.00    -0.453 OA
ATOM     21  C   UNL     1     -24.375   2.121  10.582  1.00  0.00    +0.103 A 
ATOM     22  C   UNL     1     -25.835   3.760  11.586  1.00  0.00    +0.048 A 
ATOM     23  C   UNL     1     -26.241  -3.661  11.026  1.00  0.00    +0.196 A 
ATOM     24  C   UNL     1     -24.674   3.447  10.893  1.00  0.00    +0.133 A 
ATOM     25  O   UNL     1     -25.977  -4.822  10.729  1.00  0.00    -0.289 OA
ATOM     26 Br   UNL     1     -23.805  -2.878   9.708  1.00  0.00    -0.042 Br
ATOM     27 Br   UNL     1     -22.778   1.725   9.626  1.00  0.00    -0.043 Br
BRANCH  24  28
ATOM     28  O   UNL     1     -23.863   4.489  10.541  1.00  0.00    -0.507 OA
ATOM     29  H   UNL     1     -22.970   4.291  10.878  1.00  0.00    +0.293 HD
ENDBRANCH  24  28
ENDBRANCH   2  11
TORSDOF 4
ENDMDL
MODEL 3
REMARK VINA RESULT:    -8.661      3.791      8.214
REMARK INTER + INTRA:         -11.325
REMARK INTER:                 -10.251
REMARK INTRA:                  -1.074
REMARK UNBOUND:                -1.145
REMARK SMILES O=C(O)c1ccccc1-c1c2ccc(=O)c(Br)c-2oc2c(Br)c(O)ccc12
REMARK SMILES IDX 4 1 9 2 8 3 7 4 6 5 5 6 2 7 1 8 3 9 10 11 11 12 27 13 12 14
REMARK SMILES IDX 18 15 20 16 26 17 13 18 16 19 19 20 21 21 25 22 14 23 23 24
REMARK SMILES IDX 15 25 17 26 22 27 24 28
REMARK H PARENT 3 10 24 29
ROOT
ATOM      1  C   UNL     1     -35.189   4.538   8.542  1.00  0.00    +0.067 A 
ATOM      2  C   UNL     1     -34.334   4.476   9.662  1.00  0.00    -0.002 A 
ATOM      3  C   UNL     1     -34.793   4.962  10.902  1.00  0.00    +0.009 A 
ATOM      4  C   UNL     1     -36.071   5.508  11.028  1.00  0.00    +0.001 A 
ATOM      5  C   UNL     1     -36.911   5.571   9.920  1.00  0.00    +0.001 A 
ATOM      6  C   UNL     1     -36.475   5.089   8.684  1.00  0.00    +0.016 A 
ENDROOT
BRANCH   1   7
ATOM      7  C   UNL     1     -34.755   4.047   7.208  1.00  0.00    +0.336 C 
ATOM      8  O   UNL     1     -34.306   4.702   6.287  1.00  0.00    -0.246 OA
BRANCH   7   9
ATOM      9  O   UNL     1     -34.896   2.712   7.095  1.00  0.00    -0.478 OA
ATOM     10  H   UNL     1     -35.048   2.415   8.017  1.00  0.00    +0.297 HD
ENDBRANCH   7   9
ENDBRANCH   1   7
BRANCH   2  11
ATOM     11  C   UNL     1     -32.969   3.879   9.626  1.00  0.00    +0.005 A 
ATOM     12  C   UNL     1     -32.780   2.572   9.955  1.00  0.00    +0.027 A 
ATOM     13  C   UNL     1     -31.776   4.676   9.239  1.00  0.00    +0.027 A 
ATOM     14  C   UNL     1     -33.898   1.709  10.360  1.00  0.00    +0.017 A 
ATOM     15  C   UNL     1     -31.432   1.976   9.932  1.00  0.00    +0.153 A 
ATOM     16  C   UNL     1     -30.515   4.076   9.230  1.00  0.00    +0.153 A 
ATOM     17  C   UNL     1     -31.876   6.032   8.876  1.00  0.00    +0.016 A 
ATOM     18  C   UNL     1     -33.716   0.427  10.686  1.00  0.00    +0.054 A 
ATOM     19  C   UNL     1     -31.223   0.685  10.256  1.00  0.00    +0.108 A 
ATOM     20  O   UNL     1     -30.347   2.760   9.564  1.00  0.00    -0.453 OA
ATOM     21  C   UNL     1     -29.374   4.811   8.873  1.00  0.00    +0.103 A 
ATOM     22  C   UNL     1     -30.743   6.767   8.518  1.00  0.00    +0.048 A 
ATOM     23  C   UNL     1     -32.369  -0.187  10.652  1.00  0.00    +0.196 A 
ATOM     24  C   UNL     1     -29.498   6.154   8.519  1.00  0.00    +0.133 A 
ATOM     25  O   UNL     1     -32.251  -1.373  10.941  1.00  0.00    -0.289 OA
ATOM     26 Br   UNL     1     -29.523  -0.110  10.232  1.00  0.00    -0.042 Br
ATOM     27 Br   UNL     1     -27.653   3.998   8.859  1.00  0.00    -0.043 Br
BRANCH  24  28
ATOM     28  O   UNL     1     -28.428   6.925   8.161  1.00  0.00    -0.507 OA
ATOM     29  H   UNL     1     -27.876   7.046   8.955  1.00  0.00    +0.293 HD
ENDBRANCH  24  28
ENDBRANCH   2  11
TORSDOF 4
ENDMDL
MODEL 4
REMARK VINA RESULT:    -8.643      3.789      7.046
REMARK INTER + INTRA:         -11.304
REMARK INTER:                 -10.229
REMARK INTRA:                  -1.075
REMARK UNBOUND:                -1.145
REMARK SMILES O=C(O)c1ccccc1-c1c2ccc(=O)c(Br)c-2oc2c(Br)c(O)ccc12
REMARK SMILES IDX 4 1 9 2 8 3 7 4 6 5 5 6 2 7 1 8 3 9 10 11 11 12 27 13 12 14
REMARK SMILES IDX 18 15 20 16 26 17 13 18 16 19 19 20 21 21 25 22 14 23 23 24
REMARK SMILES IDX 15 25 17 26 22 27 24 28
REMARK H PARENT 3 10 24 29
ROOT
ATOM      1  C   UNL     1     -35.182   4.396   8.570  1.00  0.00    +0.067 A 
ATOM      2  C   UNL     1     -34.319   4.356   9.685  1.00  0.00    -0.002 A 
ATOM      3  C   UNL     1     -34.780   4.834  10.927  1.00  0.00    +0.009 A 
ATOM      4  C   UNL     1     -36.068   5.352  11.059  1.00  0.00    +0.001 A 
ATOM      5  C   UNL     1     -36.917   5.395   9.957  1.00  0.00    +0.001 A 
ATOM      6  C   UNL     1     -36.478   4.919   8.720  1.00  0.00    +0.016 A 
ENDROOT
BRANCH   1   7
ATOM      7  C   UNL     1     -34.745   3.911   7.234  1.00  0.00    +0.336 C 
ATOM      8  O   UNL     1     -34.313   4.573   6.311  1.00  0.00    -0.246 OA
BRANCH   7   9
ATOM      9  O   UNL     1     -34.863   2.574   7.124  1.00  0.00    -0.478 OA
ATOM     10  H   UNL     1     -34.891   2.265   8.054  1.00  0.00    +0.297 HD
ENDBRANCH   7   9
ENDBRANCH   1   7
BRANCH   2  11
ATOM     11  C   UNL     1     -32.941   3.789   9.641  1.00  0.00    +0.005 A 
ATOM     12  C   UNL     1     -31.885   4.571   9.283  1.00  0.00    +0.027 A 
ATOM     13  C   UNL     1     -32.668   2.368   9.977  1.00  0.00    +0.027 A 
ATOM     14  C   UNL     1     -32.060   5.984   8.925  1.00  0.00    +0.017 A 
ATOM     15  C   UNL     1     -30.521   4.016   9.227  1.00  0.00    +0.153 A 
ATOM     16  C   UNL     1     -31.362   1.878   9.911  1.00  0.00    +0.153 A 
ATOM     17  C   UNL     1     -33.694   1.487  10.365  1.00  0.00    +0.016 A 
ATOM     18  C   UNL     1     -31.027   6.754   8.570  1.00  0.00    +0.054 A 
ATOM     19  C   UNL     1     -29.463   4.772   8.873  1.00  0.00    +0.108 A 
ATOM     20  O   UNL     1     -30.314   2.682   9.549  1.00  0.00    -0.453 OA
ATOM     21  C   UNL     1     -31.081   0.538  10.219  1.00  0.00    +0.103 A 
ATOM     22  C   UNL     1     -33.420   0.153  10.674  1.00  0.00    +0.048 A 
ATOM     23  C   UNL     1     -29.651   6.212   8.525  1.00  0.00    +0.196 A 
ATOM     24  C   UNL     1     -32.116  -0.316  10.598  1.00  0.00    +0.133 A 
ATOM     25  O   UNL     1     -28.729   6.960   8.212  1.00  0.00    -0.289 OA
ATOM     26 Br   UNL     1     -27.712   4.102   8.796  1.00  0.00    -0.042 Br
ATOM     27 Br   UNL     1     -29.303  -0.134  10.130  1.00  0.00    -0.043 Br
BRANCH  24  28
ATOM     28  O   UNL     1     -31.911  -1.630  10.911  1.00  0.00    -0.507 OA
ATOM     29  H   UNL     1     -31.470  -1.659  11.780  1.00  0.00    +0.293 HD
ENDBRANCH  24  28
ENDBRANCH   2  11
TORSDOF 4
ENDMDL
MODEL 5
REMARK VINA RESULT:    -8.606      1.070      4.633
REMARK INTER + INTRA:         -11.260
REMARK INTER:                 -10.191
REMARK INTRA:                  -1.069
REMARK UNBOUND:                -1.145
REMARK SMILES O=C(O)c1ccccc1-c1c2ccc(=O)c(Br)c-2oc2c(Br)c(O)ccc12
REMARK SMILES IDX 4 1 9 2 8 3 7 4 6 5 5 6 2 7 1 8 3 9 10 11 11 12 27 13 12 14
REMARK SMILES IDX 18 15 20 16 26 17 13 18 16 19 19 20 21 21 25 22 14 23 23 24
REMARK SMILES IDX 15 25 17 26 22 27 24 28
REMARK H PARENT 3 10 24 29
ROOT
ATOM      1  C   UNL     1     -27.287   1.179  11.815  1.00  0.00    +0.067 A 
ATOM      2  C   UNL     1     -27.568   1.374  10.446  1.00  0.00    -0.002 A 
ATOM      3  C   UNL     1     -27.334   0.320   9.542  1.00  0.00    +0.009 A 
ATOM      4  C   UNL     1     -26.822  -0.900   9.983  1.00  0.00    +0.001 A 
ATOM      5  C   UNL     1     -26.541  -1.088  11.333  1.00  0.00    +0.001 A 
ATOM      6  C   UNL     1     -26.772  -0.056  12.244  1.00  0.00    +0.016 A 
ENDROOT
BRANCH   1   7
ATOM      7  C   UNL     1     -27.507   2.259  12.813  1.00  0.00    +0.336 C 
ATOM      8  O   UNL     1     -26.880   3.293  12.937  1.00  0.00    -0.246 OA
BRANCH   7   9
ATOM      9  O   UNL     1     -28.548   1.987  13.623  1.00  0.00    -0.478 OA
ATOM     10  H   UNL     1     -29.160   1.475  13.053  1.00  0.00    +0.297 HD
ENDBRANCH   7   9
ENDBRANCH   1   7
BRANCH   2  11
ATOM     11  C   UNL     1     -28.148   2.631   9.895  1.00  0.00    +0.005 A 
ATOM     12  C   UNL     1     -29.498   2.793   9.822  1.00  0.00    +0.027 A 
ATOM     13  C   UNL     1     -27.289   3.741   9.404  1.00  0.00    +0.027 A 
ATOM     14  C   UNL     1     -30.425   1.748  10.274  1.00  0.00    +0.017 A 
ATOM     15  C   UNL     1     -30.079   4.029   9.269  1.00  0.00    +0.153 A 
ATOM     16  C   UNL     1     -27.878   4.895   8.885  1.00  0.00    +0.153 A 
ATOM     17  C   UNL     1     -25.884   3.665   9.446  1.00  0.00    +0.016 A 
ATOM     18  C   UNL     1     -31.750   1.903  10.202  1.00  0.00    +0.054 A 
ATOM     19  C   UNL     1     -31.412   4.210   9.186  1.00  0.00    +0.108 A 
ATOM     20  O   UNL     1     -29.238   5.039   8.822  1.00  0.00    -0.453 OA
ATOM     21  C   UNL     1     -27.087   5.953   8.411  1.00  0.00    +0.103 A 
ATOM     22  C   UNL     1     -25.093   4.716   8.977  1.00  0.00    +0.048 A 
ATOM     23  C   UNL     1     -32.346   3.145   9.662  1.00  0.00    +0.196 A 
ATOM     24  C   UNL     1     -25.697   5.854   8.461  1.00  0.00    +0.133 A 
ATOM     25  O   UNL     1     -33.568   3.252   9.632  1.00  0.00    -0.289 OA
ATOM     26 Br   UNL     1     -32.190   5.771   8.493  1.00  0.00    -0.042 Br
ATOM     27 Br   UNL     1     -27.884   7.530   7.703  1.00  0.00    -0.043 Br
BRANCH  24  28
ATOM     28  O   UNL     1     -24.870   6.848   8.017  1.00  0.00    -0.507 OA
ATOM     29  H   UNL     1     -25.181   7.114   7.133  1.00  0.00    +0.293 HD
ENDBRANCH  24  28
ENDBRANCH   2  11
TORSDOF 4
ENDMDL
MODEL 6
REMARK VINA RESULT:    -8.561      4.357      6.511
REMARK INTER + INTRA:         -11.207
REMARK INTER:                 -10.080
REMARK INTRA:                  -1.127
REMARK UNBOUND:                -1.145
REMARK SMILES O=C(O)c1ccccc1-c1c2ccc(=O)c(Br)c-2oc2c(Br)c(O)ccc12
REMARK SMILES IDX 4 1 9 2 8 3 7 4 6 5 5 6 2 7 1 8 3 9 10 11 11 12 27 13 12 14
REMARK SMILES IDX 18 15 20 16 26 17 13 18 16 19 19 20 21 21 25 22 14 23 23 24
REMARK SMILES IDX 15 25 17 26 22 27 24 28
REMARK H PARENT 3 10 24 29
ROOT
ATOM      1  C   UNL     1     -29.894   0.611  12.236  1.00  0.00    +0.067 A 
ATOM      2  C   UNL     1     -28.619   0.517  12.833  1.00  0.00    -0.002 A 
ATOM      3  C   UNL     1     -28.506   0.639  14.231  1.00  0.00    +0.009 A 
ATOM      4  C   UNL     1     -29.633   0.862  15.022  1.00  0.00    +0.001 A 
ATOM      5  C   UNL     1     -30.889   0.959  14.431  1.00  0.00    +0.001 A 
ATOM      6  C   UNL     1     -31.021   0.834  13.047  1.00  0.00    +0.016 A 
ENDROOT
BRANCH   1   7
ATOM      7  C   UNL     1     -30.071   0.496  10.764  1.00  0.00    +0.336 C 
ATOM      8  O   UNL     1     -30.296  -0.511  10.122  1.00  0.00    -0.246 OA
BRANCH   7   9
ATOM      9  O   UNL     1     -29.969   1.692  10.153  1.00  0.00    -0.478 OA
ATOM     10  H   UNL     1     -29.663   2.292  10.865  1.00  0.00    +0.297 HD
ENDBRANCH   7   9
ENDBRANCH   1   7
BRANCH   2  11
ATOM     11  C   UNL     1     -27.369   0.247  12.068  1.00  0.00    +0.005 A 
ATOM     12  C   UNL     1     -26.571   1.275  11.667  1.00  0.00    +0.027 A 
ATOM     13  C   UNL     1     -26.950  -1.135  11.714  1.00  0.00    +0.027 A 
ATOM     14  C   UNL     1     -26.909   2.673  11.963  1.00  0.00    +0.017 A 
ATOM     15  C   UNL     1     -25.338   1.017  10.902  1.00  0.00    +0.153 A 
ATOM     16  C   UNL     1     -25.776  -1.337  10.986  1.00  0.00    +0.153 A 
ATOM     17  C   UNL     1     -27.707  -2.259  12.092  1.00  0.00    +0.016 A 
ATOM     18  C   UNL     1     -26.130   3.684  11.569  1.00  0.00    +0.054 A 
ATOM     19  C   UNL     1     -24.536   2.020  10.493  1.00  0.00    +0.108 A 
ATOM     20  O   UNL     1     -24.987  -0.290  10.593  1.00  0.00    -0.453 OA
ATOM     21  C   UNL     1     -25.364  -2.632  10.636  1.00  0.00    +0.103 A 
ATOM     22  C   UNL     1     -27.301  -3.550  11.746  1.00  0.00    +0.048 A 
ATOM     23  C   UNL     1     -24.882   3.438  10.813  1.00  0.00    +0.196 A 
ATOM     24  C   UNL     1     -26.132  -3.731  11.020  1.00  0.00    +0.133 A 
ATOM     25  O   UNL     1     -24.187   4.395  10.487  1.00  0.00    -0.289 OA
ATOM     26 Br   UNL     1     -22.956   1.731   9.522  1.00  0.00    -0.042 Br
ATOM     27 Br   UNL     1     -23.764  -2.915   9.644  1.00  0.00    -0.043 Br
BRANCH  24  28
ATOM     28  O   UNL     1     -25.788  -5.017  10.711  1.00  0.00    -0.507 OA
ATOM     29  H   UNL     1     -24.818  -5.085  10.781  1.00  0.00    +0.293 HD
ENDBRANCH  24  28
ENDBRANCH   2  11
TORSDOF 4
ENDMDL
MODEL 7
REMARK VINA RESULT:    -8.486      3.686      7.835
REMARK INTER + INTRA:         -11.119
REMARK INTER:                 -10.105
REMARK INTRA:                  -1.014
REMARK UNBOUND:                -1.145
REMARK SMILES O=C(O)c1ccccc1-c1c2ccc(=O)c(Br)c-2oc2c(Br)c(O)ccc12
REMARK SMILES IDX 4 1 9 2 8 3 7 4 6 5 5 6 2 7 1 8 3 9 10 11 11 12 27 13 12 14
REMARK SMILES IDX 18 15 20 16 26 17 13 18 16 19 19 20 21 21 25 22 14 23 23 24
REMARK SMILES IDX 15 25 17 26 22 27 24 28
REMARK H PARENT 3 10 24 29
ROOT
ATOM      1  C   UNL     1     -35.298   4.282   8.195  1.00  0.00    +0.067 A 
ATOM      2  C   UNL     1     -34.463   4.777   9.218  1.00  0.00    -0.002 A 
ATOM      3  C   UNL     1     -35.028   5.102  10.466  1.00  0.00    +0.009 A 
ATOM      4  C   UNL     1     -36.396   4.949  10.693  1.00  0.00    +0.001 A 
ATOM      5  C   UNL     1     -37.218   4.465   9.681  1.00  0.00    +0.001 A 
ATOM      6  C   UNL     1     -36.675   4.132   8.439  1.00  0.00    +0.016 A 
ENDROOT
BRANCH   1   7
ATOM      7  C   UNL     1     -34.757   3.929   6.855  1.00  0.00    +0.336 C 
ATOM      8  O   UNL     1     -34.350   4.688   5.997  1.00  0.00    -0.246 OA
BRANCH   7   9
ATOM      9  O   UNL     1     -34.739   2.597   6.657  1.00  0.00    -0.478 OA
ATOM     10  H   UNL     1     -35.283   2.244   7.393  1.00  0.00    +0.297 HD
ENDBRANCH   7   9
ENDBRANCH   1   7
BRANCH   2  11
ATOM     11  C   UNL     1     -32.989   4.939   9.072  1.00  0.00    +0.005 A 
ATOM     12  C   UNL     1     -32.144   3.949   9.472  1.00  0.00    +0.027 A 
ATOM     13  C   UNL     1     -32.389   6.172   8.498  1.00  0.00    +0.027 A 
ATOM     14  C   UNL     1     -32.645   2.699  10.060  1.00  0.00    +0.017 A 
ATOM     15  C   UNL     1     -30.685   4.105   9.341  1.00  0.00    +0.153 A 
ATOM     16  C   UNL     1     -31.001   6.283   8.393  1.00  0.00    +0.153 A 
ATOM     17  C   UNL     1     -33.183   7.244   8.052  1.00  0.00    +0.016 A 
ATOM     18  C   UNL     1     -31.819   1.726  10.455  1.00  0.00    +0.054 A 
ATOM     19  C   UNL     1     -29.831   3.138   9.732  1.00  0.00    +0.108 A 
ATOM     20  O   UNL     1     -30.169   5.275   8.799  1.00  0.00    -0.453 OA
ATOM     21  C   UNL     1     -30.413   7.439   7.859  1.00  0.00    +0.103 A 
ATOM     22  C   UNL     1     -32.603   8.397   7.519  1.00  0.00    +0.048 A 
ATOM     23  C   UNL     1     -30.352   1.865  10.315  1.00  0.00    +0.196 A 
ATOM     24  C   UNL     1     -31.221   8.490   7.425  1.00  0.00    +0.133 A 
ATOM     25  O   UNL     1     -29.632   0.939  10.675  1.00  0.00    -0.289 OA
ATOM     26 Br   UNL     1     -27.968   3.298   9.577  1.00  0.00    -0.042 Br
ATOM     27 Br   UNL     1     -28.522   7.596   7.712  1.00  0.00    -0.043 Br
BRANCH  24  28
ATOM     28  O   UNL     1     -30.712   9.643   6.896  1.00  0.00    -0.507 OA
ATOM     29  H   UNL     1     -31.084   9.743   6.000  1.00  0.00    +0.293 HD
ENDBRANCH  24  28
ENDBRANCH   2  11
TORSDOF 4
ENDMDL
MODEL 8
REMARK VINA RESULT:    -8.274      3.468      4.961
REMARK INTER + INTRA:         -10.870
REMARK INTER:                  -9.793
REMARK INTRA:                  -1.076
REMARK UNBOUND:                -1.145
REMARK SMILES O=C(O)c1ccccc1-c1c2ccc(=O)c(Br)c-2oc2c(Br)c(O)ccc12
REMARK SMILES IDX 4 1 9 2 8 3 7 4 6 5 5 6 2 7 1 8 3 9 10 11 11 12 27 13 12 14
REMARK SMILES IDX 18 15 20 16 26 17 13 18 16 19 19 20 21 21 25 22 14 23 23 24
REMARK SMILES IDX 15 25 17 26 22 27 24 28
REMARK H PARENT 3 10 24 29
ROOT
ATOM      1  C   UNL     1     -30.101  -0.962  14.248  1.00  0.00    +0.067 A 
ATOM      2  C   UNL     1     -30.186  -1.033  12.842  1.00  0.00    -0.002 A 
ATOM      3  C   UNL     1     -30.456  -2.274  12.233  1.00  0.00    +0.009 A 
ATOM      4  C   UNL     1     -30.629  -3.424  13.002  1.00  0.00    +0.001 A 
ATOM      5  C   UNL     1     -30.541  -3.353  14.389  1.00  0.00    +0.001 A 
ATOM      6  C   UNL     1     -30.279  -2.130  15.010  1.00  0.00    +0.016 A 
ENDROOT
BRANCH   1   7
ATOM      7  C   UNL     1     -29.811   0.320  14.943  1.00  0.00    +0.336 C 
ATOM      8  O   UNL     1     -30.583   1.231  15.169  1.00  0.00    -0.246 OA
BRANCH   7   9
ATOM      9  O   UNL     1     -28.528   0.391  15.348  1.00  0.00    -0.478 OA
ATOM     10  H   UNL     1     -28.596   0.592  16.305  1.00  0.00    +0.297 HD
ENDBRANCH   7   9
ENDBRANCH   1   7
BRANCH   2  11
ATOM     11  C   UNL     1     -30.048   0.151  11.947  1.00  0.00    +0.005 A 
ATOM     12  C   UNL     1     -28.819   0.551  11.518  1.00  0.00    +0.027 A 
ATOM     13  C   UNL     1     -31.228   0.933  11.496  1.00  0.00    +0.027 A 
ATOM     14  C   UNL     1     -27.596  -0.154  11.920  1.00  0.00    +0.017 A 
ATOM     15  C   UNL     1     -28.673   1.727  10.641  1.00  0.00    +0.153 A 
ATOM     16  C   UNL     1     -31.049   2.042  10.666  1.00  0.00    +0.153 A 
ATOM     17  C   UNL     1     -32.537   0.589  11.882  1.00  0.00    +0.016 A 
ATOM     18  C   UNL     1     -26.388   0.238  11.503  1.00  0.00    +0.054 A 
ATOM     19  C   UNL     1     -27.467   2.141  10.207  1.00  0.00    +0.108 A 
ATOM     20  O   UNL     1     -29.805   2.428  10.246  1.00  0.00    -0.453 OA
ATOM     21  C   UNL     1     -32.148   2.799  10.233  1.00  0.00    +0.103 A 
ATOM     22  C   UNL     1     -33.635   1.339  11.452  1.00  0.00    +0.048 A 
ATOM     23  C   UNL     1     -26.230   1.407  10.611  1.00  0.00    +0.196 A 
ATOM     24  C   UNL     1     -33.436   2.440  10.630  1.00  0.00    +0.133 A 
ATOM     25  O   UNL     1     -25.103   1.721  10.237  1.00  0.00    -0.289 OA
ATOM     26 Br   UNL     1     -27.242   3.629   9.086  1.00  0.00    -0.042 Br
ATOM     27 Br   UNL     1     -31.910   4.311   9.102  1.00  0.00    -0.043 Br
BRANCH  24  28
ATOM     28  O   UNL     1     -34.548   3.133  10.244  1.00  0.00    -0.507 OA
ATOM     29  H   UNL     1     -35.266   2.486  10.116  1.00  0.00    +0.293 HD
ENDBRANCH  24  28
ENDBRANCH   2  11
TORSDOF 4
ENDMDL
MODEL 9
REMARK VINA RESULT:    -8.268      3.467      6.274
REMARK INTER + INTRA:         -10.863
REMARK INTER:                  -9.814
REMARK INTRA:                  -1.049
REMARK UNBOUND:                -1.145
REMARK SMILES O=C(O)c1ccccc1-c1c2ccc(=O)c(Br)c-2oc2c(Br)c(O)ccc12
REMARK SMILES IDX 4 1 9 2 8 3 7 4 6 5 5 6 2 7 1 8 3 9 10 11 11 12 27 13 12 14
REMARK SMILES IDX 18 15 20 16 26 17 13 18 16 19 19 20 21 21 25 22 14 23 23 24
REMARK SMILES IDX 15 25 17 26 22 27 24 28
REMARK H PARENT 3 10 24 29
ROOT
ATOM      1  C   UNL     1     -30.090  -0.947  14.284  1.00  0.00    +0.067 A 
ATOM      2  C   UNL     1     -30.206  -1.012  12.880  1.00  0.00    -0.002 A 
ATOM      3  C   UNL     1     -30.601  -2.224  12.280  1.00  0.00    +0.009 A 
ATOM      4  C   UNL     1     -30.866  -3.352  13.056  1.00  0.00    +0.001 A 
ATOM      5  C   UNL     1     -30.747  -3.287  14.441  1.00  0.00    +0.001 A 
ATOM      6  C   UNL     1     -30.362  -2.092  15.053  1.00  0.00    +0.016 A 
ENDROOT
BRANCH   1   7
ATOM      7  C   UNL     1     -29.669   0.304  14.969  1.00  0.00    +0.336 C 
ATOM      8  O   UNL     1     -30.344   1.291  15.188  1.00  0.00    -0.246 OA
BRANCH   7   9
ATOM      9  O   UNL     1     -28.386   0.246  15.373  1.00  0.00    -0.478 OA
ATOM     10  H   UNL     1     -28.303   1.000  15.995  1.00  0.00    +0.297 HD
ENDBRANCH   7   9
ENDBRANCH   1   7
BRANCH   2  11
ATOM     11  C   UNL     1     -29.975   0.152  11.978  1.00  0.00    +0.005 A 
ATOM     12  C   UNL     1     -31.022   0.910  11.550  1.00  0.00    +0.027 A 
ATOM     13  C   UNL     1     -28.614   0.524  11.513  1.00  0.00    +0.027 A 
ATOM     14  C   UNL     1     -32.403   0.611  11.949  1.00  0.00    +0.017 A 
ATOM     15  C   UNL     1     -30.804   2.056  10.650  1.00  0.00    +0.153 A 
ATOM     16  C   UNL     1     -28.448   1.617  10.659  1.00  0.00    +0.153 A 
ATOM     17  C   UNL     1     -27.472  -0.196  11.909  1.00  0.00    +0.016 A 
ATOM     18  C   UNL     1     -33.434   1.352  11.529  1.00  0.00    +0.054 A 
ATOM     19  C   UNL     1     -31.826   2.818  10.213  1.00  0.00    +0.108 A 
ATOM     20  O   UNL     1     -29.514   2.367  10.241  1.00  0.00    -0.453 OA
ATOM     21  C   UNL     1     -27.173   1.984  10.204  1.00  0.00    +0.103 A 
ATOM     22  C   UNL     1     -26.200   0.166  11.459  1.00  0.00    +0.048 A 
ATOM     23  C   UNL     1     -33.226   2.514  10.638  1.00  0.00    +0.196 A 
ATOM     24  C   UNL     1     -26.056   1.253  10.608  1.00  0.00    +0.133 A 
ATOM     25  O   UNL     1     -34.199   3.177  10.292  1.00  0.00    -0.289 OA
ATOM     26 Br   UNL     1     -31.587   4.289   9.073  1.00  0.00    -0.042 Br
ATOM     27 Br   UNL     1     -26.941   3.473   9.040  1.00  0.00    -0.043 Br
BRANCH  24  28
ATOM     28  O   UNL     1     -24.788   1.558  10.201  1.00  0.00    -0.507 OA
ATOM     29  H   UNL     1     -24.171   1.155  10.840  1.00  0.00    +0.293 HD
ENDBRANCH  24  28
ENDBRANCH   2  11
TORSDOF 4
ENDMDL
