REMARK SMILES CCc1nc(Nc2c(CC)cccc2CC)c2cnn(-c3ccccc3)c2n1
REMARK SMILES IDX 6 1 7 3 8 4 11 5 14 6 12 7 13 8 9 9 10 10 15 11 16 12 5 13
REMARK SMILES IDX 17 14 4 15 18 16 27 17 3 18 19 19 20 20 28 21 2 22 1 23
REMARK SMILES IDX 21 24 22 25 26 26 23 27 25 28 24 29
REMARK H PARENT 6 2
ROOT
ATOM      1  N   UNL     1      -1.692   0.394   0.994  1.00  0.00    -0.339 N 
ATOM      2  H   UNL     1      -1.699   0.040   1.942  1.00  0.00    +0.168 HD
ENDROOT
BRANCH   1   3
ATOM      3  C   UNL     1      -2.940   0.203   0.349  1.00  0.00    +0.046 A 
ATOM      4  C   UNL     1      -3.671  -0.993   0.566  1.00  0.00    -0.024 A 
ATOM      5  C   UNL     1      -4.905  -1.179  -0.080  1.00  0.00    +0.006 A 
ATOM      6  C   UNL     1      -3.445   1.174  -0.548  1.00  0.00    -0.024 A 
ATOM      7  C   UNL     1      -5.409  -0.214  -0.942  1.00  0.00    +0.001 A 
ATOM      8  C   UNL     1      -4.686   0.951  -1.174  1.00  0.00    +0.006 A 
BRANCH   4   9
ATOM      9  C   UNL     1      -3.184  -2.092   1.486  1.00  0.00    +0.034 C 
ATOM     10  C   UNL     1      -3.639  -1.874   2.922  1.00  0.00    +0.009 C 
ENDBRANCH   4   9
BRANCH   6  11
ATOM     11  C   UNL     1      -2.736   2.486  -0.820  1.00  0.00    +0.034 C 
ATOM     12  C   UNL     1      -2.300   2.640  -2.272  1.00  0.00    +0.009 C 
ENDBRANCH   6  11
ENDBRANCH   1   3
BRANCH   1  13
ATOM     13  C   UNL     1      -0.436   0.180   0.389  1.00  0.00    +0.145 A 
ATOM     14  C   UNL     1       0.738   0.073   1.148  1.00  0.00    +0.082 A 
ATOM     15  N   UNL     1      -0.317   0.065  -0.955  1.00  0.00    -0.215 NA
ATOM     16  C   UNL     1       1.095   0.139   2.502  1.00  0.00    +0.150 A 
ATOM     17  C   UNL     1       1.929  -0.155   0.479  1.00  0.00    +0.168 A 
ATOM     18  C   UNL     1       0.889  -0.159  -1.512  1.00  0.00    +0.133 A 
ATOM     19  N   UNL     1       2.398  -0.045   2.709  1.00  0.00    -0.174 NA
ATOM     20  N   UNL     1       2.926  -0.218   1.455  1.00  0.00    -0.215 N 
ATOM     21  N   UNL     1       2.056  -0.284  -0.856  1.00  0.00    -0.213 NA
BRANCH  18  22
ATOM     22  C   UNL     1       0.937  -0.255  -3.013  1.00  0.00    +0.074 C 
ATOM     23  C   UNL     1       1.476   1.025  -3.632  1.00  0.00    +0.012 C 
ENDBRANCH  18  22
BRANCH  20  24
ATOM     24  C   UNL     1       4.333  -0.425   1.307  1.00  0.00    +0.067 A 
ATOM     25  C   UNL     1       5.145  -0.457   2.454  1.00  0.00    +0.028 A 
ATOM     26  C   UNL     1       4.931  -0.596   0.052  1.00  0.00    +0.028 A 
ATOM     27  C   UNL     1       6.524  -0.655   2.346  1.00  0.00    +0.002 A 
ATOM     28  C   UNL     1       6.313  -0.794  -0.050  1.00  0.00    +0.002 A 
ATOM     29  C   UNL     1       7.107  -0.823   1.094  1.00  0.00    +0.000 A 
ENDBRANCH  20  24
ENDBRANCH   1  13
TORSDOF 6
