MODEL 1
REMARK VINA RESULT:    -8.417      0.000      0.000
REMARK INTER + INTRA:          -8.417
REMARK INTER:                  -8.417
REMARK INTRA:                   0.000
REMARK UNBOUND:                 0.000
REMARK SMILES Cc1cc2ccccc2c(Br)c1C
REMARK SMILES IDX 1 1 2 2 12 3 13 4 10 5 9 6 8 7 7 8 6 9 5 10 4 11 3 12 11 13
REMARK H PARENT
ROOT
ATOM      1  C   UNL     1     -28.015  13.447   5.260  1.00  0.00    +0.044 C 
ATOM      2  C   UNL     1     -28.394  12.082   5.769  1.00  0.00    -0.046 A 
ATOM      3  C   UNL     1     -27.471  11.021   5.848  1.00  0.00    -0.033 A 
ATOM      4  C   UNL     1     -26.036  11.212   5.416  1.00  0.00    +0.046 C 
ATOM      5  C   UNL     1     -27.915   9.766   6.340  1.00  0.00    +0.029 A 
ATOM      6  C   UNL     1     -29.264   9.551   6.756  1.00  0.00    -0.004 A 
ATOM      7  C   UNL     1     -29.782   8.328   7.259  1.00  0.00    +0.010 A 
ATOM      8  C   UNL     1     -31.117   8.189   7.648  1.00  0.00    +0.001 A 
ATOM      9  C   UNL     1     -31.980   9.269   7.549  1.00  0.00    +0.001 A 
ATOM     10  C   UNL     1     -31.505  10.485   7.060  1.00  0.00    +0.009 A 
ATOM     11  C   UNL     1     -30.164  10.635   6.665  1.00  0.00    -0.017 A 
ATOM     12  C   UNL     1     -29.721  11.873   6.178  1.00  0.00    +0.012 A 
ATOM     13 Br   UNL     1     -26.656   8.315   6.448  1.00  0.00    -0.050 Br
ENDROOT
TORSDOF 0
ENDMDL
MODEL 2
REMARK VINA RESULT:    -8.289      0.810      4.078
REMARK INTER + INTRA:          -8.289
REMARK INTER:                  -8.289
REMARK INTRA:                   0.000
REMARK UNBOUND:                 0.000
REMARK SMILES Cc1cc2ccccc2c(Br)c1C
REMARK SMILES IDX 1 1 2 2 12 3 13 4 10 5 9 6 8 7 7 8 6 9 5 10 4 11 3 12 11 13
REMARK H PARENT
ROOT
ATOM      1  C   UNL     1     -32.134   9.588   7.689  1.00  0.00    +0.044 C 
ATOM      2  C   UNL     1     -30.726   9.808   7.203  1.00  0.00    -0.046 A 
ATOM      3  C   UNL     1     -29.733   8.812   7.289  1.00  0.00    -0.033 A 
ATOM      4  C   UNL     1     -30.045   7.458   7.883  1.00  0.00    +0.046 C 
ATOM      5  C   UNL     1     -28.431   9.105   6.806  1.00  0.00    +0.029 A 
ATOM      6  C   UNL     1     -28.102  10.374   6.239  1.00  0.00    -0.004 A 
ATOM      7  C   UNL     1     -26.825  10.740   5.735  1.00  0.00    +0.010 A 
ATOM      8  C   UNL     1     -26.574  12.003   5.193  1.00  0.00    +0.001 A 
ATOM      9  C   UNL     1     -27.591  12.943   5.135  1.00  0.00    +0.001 A 
ATOM     10  C   UNL     1     -28.857  12.616   5.619  1.00  0.00    +0.009 A 
ATOM     11  C   UNL     1     -29.120  11.349   6.168  1.00  0.00    -0.017 A 
ATOM     12  C   UNL     1     -30.405  11.055   6.646  1.00  0.00    +0.012 A 
ATOM     13 Br   UNL     1     -27.073   7.747   6.922  1.00  0.00    -0.050 Br
ENDROOT
TORSDOF 0
ENDMDL
MODEL 3
REMARK VINA RESULT:    -8.211      1.903      4.672
REMARK INTER + INTRA:          -8.211
REMARK INTER:                  -8.211
REMARK INTRA:                   0.000
REMARK UNBOUND:                 0.000
REMARK SMILES Cc1cc2ccccc2c(Br)c1C
REMARK SMILES IDX 1 1 2 2 12 3 13 4 10 5 9 6 8 7 7 8 6 9 5 10 4 11 3 12 11 13
REMARK H PARENT
ROOT
ATOM      1  C   UNL     1     -26.858   6.981   7.395  1.00  0.00    +0.044 C 
ATOM      2  C   UNL     1     -27.571   8.261   7.047  1.00  0.00    -0.046 A 
ATOM      3  C   UNL     1     -28.937   8.465   7.326  1.00  0.00    -0.033 A 
ATOM      4  C   UNL     1     -29.759   7.389   7.995  1.00  0.00    +0.046 C 
ATOM      5  C   UNL     1     -29.528   9.704   6.963  1.00  0.00    +0.029 A 
ATOM      6  C   UNL     1     -28.781  10.742   6.329  1.00  0.00    -0.004 A 
ATOM      7  C   UNL     1     -29.301  12.005   5.938  1.00  0.00    +0.010 A 
ATOM      8  C   UNL     1     -28.509  12.976   5.320  1.00  0.00    +0.001 A 
ATOM      9  C   UNL     1     -27.170  12.719   5.072  1.00  0.00    +0.001 A 
ATOM     10  C   UNL     1     -26.627  11.490   5.443  1.00  0.00    +0.009 A 
ATOM     11  C   UNL     1     -27.414  10.505   6.064  1.00  0.00    -0.017 A 
ATOM     12  C   UNL     1     -26.835   9.281   6.424  1.00  0.00    +0.012 A 
ATOM     13 Br   UNL     1     -31.394   9.985   7.342  1.00  0.00    -0.050 Br
ENDROOT
TORSDOF 0
ENDMDL
MODEL 4
REMARK VINA RESULT:    -8.202      1.845      3.432
REMARK INTER + INTRA:          -8.202
REMARK INTER:                  -8.202
REMARK INTRA:                   0.000
REMARK UNBOUND:                 0.000
REMARK SMILES Cc1cc2ccccc2c(Br)c1C
REMARK SMILES IDX 1 1 2 2 12 3 13 4 10 5 9 6 8 7 7 8 6 9 5 10 4 11 3 12 11 13
REMARK H PARENT
ROOT
ATOM      1  C   UNL     1     -26.832   6.637   7.701  1.00  0.00    +0.044 C 
ATOM      2  C   UNL     1     -27.366   7.974   7.261  1.00  0.00    -0.046 A 
ATOM      3  C   UNL     1     -26.551   8.952   6.656  1.00  0.00    -0.033 A 
ATOM      4  C   UNL     1     -25.081   8.695   6.420  1.00  0.00    +0.046 C 
ATOM      5  C   UNL     1     -27.139  10.186   6.273  1.00  0.00    +0.029 A 
ATOM      6  C   UNL     1     -28.525  10.462   6.482  1.00  0.00    -0.004 A 
ATOM      7  C   UNL     1     -29.183  11.669   6.126  1.00  0.00    +0.010 A 
ATOM      8  C   UNL     1     -30.545  11.870   6.361  1.00  0.00    +0.001 A 
ATOM      9  C   UNL     1     -31.297  10.871   6.959  1.00  0.00    +0.001 A 
ATOM     10  C   UNL     1     -30.683   9.674   7.321  1.00  0.00    +0.009 A 
ATOM     11  C   UNL     1     -29.312   9.460   7.090  1.00  0.00    -0.017 A 
ATOM     12  C   UNL     1     -28.728   8.243   7.467  1.00  0.00    +0.012 A 
ATOM     13 Br   UNL     1     -26.028  11.523   5.448  1.00  0.00    -0.050 Br
ENDROOT
TORSDOF 0
ENDMDL
MODEL 5
REMARK VINA RESULT:    -8.158      2.274      4.120
REMARK INTER + INTRA:          -8.158
REMARK INTER:                  -8.158
REMARK INTRA:                   0.000
REMARK UNBOUND:                 0.000
REMARK SMILES Cc1cc2ccccc2c(Br)c1C
REMARK SMILES IDX 1 1 2 2 12 3 13 4 10 5 9 6 8 7 7 8 6 9 5 10 4 11 3 12 11 13
REMARK H PARENT
ROOT
ATOM      1  C   UNL     1     -31.003  10.092   7.138  1.00  0.00    +0.044 C 
ATOM      2  C   UNL     1     -29.540   9.790   6.946  1.00  0.00    -0.046 A 
ATOM      3  C   UNL     1     -28.650  10.706   6.352  1.00  0.00    -0.033 A 
ATOM      4  C   UNL     1     -29.134  12.055   5.874  1.00  0.00    +0.046 C 
ATOM      5  C   UNL     1     -27.286  10.337   6.211  1.00  0.00    +0.029 A 
ATOM      6  C   UNL     1     -26.795   9.070   6.651  1.00  0.00    -0.004 A 
ATOM      7  C   UNL     1     -25.449   8.632   6.545  1.00  0.00    +0.010 A 
ATOM      8  C   UNL     1     -25.038   7.375   6.998  1.00  0.00    +0.001 A 
ATOM      9  C   UNL     1     -25.960   6.516   7.575  1.00  0.00    +0.001 A 
ATOM     10  C   UNL     1     -27.289   6.915   7.696  1.00  0.00    +0.009 A 
ATOM     11  C   UNL     1     -27.714   8.176   7.242  1.00  0.00    -0.017 A 
ATOM     12  C   UNL     1     -29.059   8.544   7.380  1.00  0.00    +0.012 A 
ATOM     13 Br   UNL     1     -26.069  11.587   5.399  1.00  0.00    -0.050 Br
ENDROOT
TORSDOF 0
ENDMDL
MODEL 6
REMARK VINA RESULT:    -7.482      1.317      3.963
REMARK INTER + INTRA:          -7.482
REMARK INTER:                  -7.482
REMARK INTRA:                   0.000
REMARK UNBOUND:                 0.000
REMARK SMILES Cc1cc2ccccc2c(Br)c1C
REMARK SMILES IDX 1 1 2 2 12 3 13 4 10 5 9 6 8 7 7 8 6 9 5 10 4 11 3 12 11 13
REMARK H PARENT
ROOT
ATOM      1  C   UNL     1     -30.557   6.424   8.423  1.00  0.00    +0.044 C 
ATOM      2  C   UNL     1     -29.876   7.633   7.838  1.00  0.00    -0.046 A 
ATOM      3  C   UNL     1     -28.478   7.712   7.682  1.00  0.00    -0.033 A 
ATOM      4  C   UNL     1     -27.588   6.567   8.103  1.00  0.00    +0.046 C 
ATOM      5  C   UNL     1     -27.921   8.891   7.121  1.00  0.00    +0.029 A 
ATOM      6  C   UNL     1     -28.733   9.992   6.713  1.00  0.00    -0.004 A 
ATOM      7  C   UNL     1     -28.250  11.201   6.144  1.00  0.00    +0.010 A 
ATOM      8  C   UNL     1     -29.106  12.239   5.767  1.00  0.00    +0.001 A 
ATOM      9  C   UNL     1     -30.474  12.104   5.944  1.00  0.00    +0.001 A 
ATOM     10  C   UNL     1     -30.982  10.931   6.499  1.00  0.00    +0.009 A 
ATOM     11  C   UNL     1     -30.131   9.880   6.883  1.00  0.00    -0.017 A 
ATOM     12  C   UNL     1     -30.677   8.714   7.437  1.00  0.00    +0.012 A 
ATOM     13 Br   UNL     1     -26.012   9.001   6.907  1.00  0.00    -0.050 Br
ENDROOT
TORSDOF 0
ENDMDL
MODEL 7
REMARK VINA RESULT:    -7.265      2.017      4.992
REMARK INTER + INTRA:          -7.265
REMARK INTER:                  -7.265
REMARK INTRA:                   0.000
REMARK UNBOUND:                 0.000
REMARK SMILES Cc1cc2ccccc2c(Br)c1C
REMARK SMILES IDX 1 1 2 2 12 3 13 4 10 5 9 6 8 7 7 8 6 9 5 10 4 11 3 12 11 13
REMARK H PARENT
ROOT
ATOM      1  C   UNL     1     -31.251   7.018   8.133  1.00  0.00    +0.044 C 
ATOM      2  C   UNL     1     -30.130   7.917   7.680  1.00  0.00    -0.046 A 
ATOM      3  C   UNL     1     -30.349   9.242   7.254  1.00  0.00    -0.033 A 
ATOM      4  C   UNL     1     -31.742   9.827   7.234  1.00  0.00    +0.046 C 
ATOM      5  C   UNL     1     -29.234  10.018   6.844  1.00  0.00    +0.029 A 
ATOM      6  C   UNL     1     -27.905   9.496   6.850  1.00  0.00    -0.004 A 
ATOM      7  C   UNL     1     -26.742  10.210   6.456  1.00  0.00    +0.010 A 
ATOM      8  C   UNL     1     -25.469   9.634   6.489  1.00  0.00    +0.001 A 
ATOM      9  C   UNL     1     -25.315   8.325   6.918  1.00  0.00    +0.001 A 
ATOM     10  C   UNL     1     -26.435   7.596   7.313  1.00  0.00    +0.009 A 
ATOM     11  C   UNL     1     -27.721   8.165   7.283  1.00  0.00    -0.017 A 
ATOM     12  C   UNL     1     -28.825   7.402   7.688  1.00  0.00    +0.012 A 
ATOM     13 Br   UNL     1     -29.530  11.828   6.261  1.00  0.00    -0.050 Br
ENDROOT
TORSDOF 0
ENDMDL
MODEL 8
REMARK VINA RESULT:    -6.605      9.249     11.470
REMARK INTER + INTRA:          -6.605
REMARK INTER:                  -6.605
REMARK INTRA:                   0.000
REMARK UNBOUND:                 0.000
REMARK SMILES Cc1cc2ccccc2c(Br)c1C
REMARK SMILES IDX 1 1 2 2 12 3 13 4 10 5 9 6 8 7 7 8 6 9 5 10 4 11 3 12 11 13
REMARK H PARENT
ROOT
ATOM      1  C   UNL     1     -29.917   0.793  15.331  1.00  0.00    +0.044 C 
ATOM      2  C   UNL     1     -29.401   1.008  13.933  1.00  0.00    -0.046 A 
ATOM      3  C   UNL     1     -29.925   0.322  12.819  1.00  0.00    -0.033 A 
ATOM      4  C   UNL     1     -31.048  -0.676  12.985  1.00  0.00    +0.046 C 
ATOM      5  C   UNL     1     -29.378   0.587  11.537  1.00  0.00    +0.029 A 
ATOM      6  C   UNL     1     -28.316   1.523  11.345  1.00  0.00    -0.004 A 
ATOM      7  C   UNL     1     -27.719   1.840  10.096  1.00  0.00    +0.010 A 
ATOM      8  C   UNL     1     -26.681   2.769   9.983  1.00  0.00    +0.001 A 
ATOM      9  C   UNL     1     -26.206   3.413  11.115  1.00  0.00    +0.001 A 
ATOM     10  C   UNL     1     -26.770   3.126  12.356  1.00  0.00    +0.009 A 
ATOM     11  C   UNL     1     -27.814   2.192  12.482  1.00  0.00    -0.017 A 
ATOM     12  C   UNL     1     -28.358   1.928  13.747  1.00  0.00    +0.012 A 
ATOM     13 Br   UNL     1     -30.092  -0.349  10.014  1.00  0.00    -0.050 Br
ENDROOT
TORSDOF 0
ENDMDL
MODEL 9
REMARK VINA RESULT:    -6.558      6.818      9.149
REMARK INTER + INTRA:          -6.558
REMARK INTER:                  -6.558
REMARK INTRA:                   0.000
REMARK UNBOUND:                 0.000
REMARK SMILES Cc1cc2ccccc2c(Br)c1C
REMARK SMILES IDX 1 1 2 2 12 3 13 4 10 5 9 6 8 7 7 8 6 9 5 10 4 11 3 12 11 13
REMARK H PARENT
ROOT
ATOM      1  C   UNL     1     -33.286   6.139   7.187  1.00  0.00    +0.044 C 
ATOM      2  C   UNL     1     -34.195   5.539   8.228  1.00  0.00    -0.046 A 
ATOM      3  C   UNL     1     -33.742   4.604   9.178  1.00  0.00    -0.033 A 
ATOM      4  C   UNL     1     -32.300   4.154   9.193  1.00  0.00    +0.046 C 
ATOM      5  C   UNL     1     -34.668   4.090  10.124  1.00  0.00    +0.029 A 
ATOM      6  C   UNL     1     -36.038   4.493  10.137  1.00  0.00    -0.004 A 
ATOM      7  C   UNL     1     -37.020   4.025  11.050  1.00  0.00    +0.010 A 
ATOM      8  C   UNL     1     -38.346   4.465  11.004  1.00  0.00    +0.001 A 
ATOM      9  C   UNL     1     -38.734   5.388  10.046  1.00  0.00    +0.001 A 
ATOM     10  C   UNL     1     -37.795   5.868   9.136  1.00  0.00    +0.009 A 
ATOM     11  C   UNL     1     -36.459   5.433   9.171  1.00  0.00    -0.017 A 
ATOM     12  C   UNL     1     -35.541   5.937   8.240  1.00  0.00    +0.012 A 
ATOM     13 Br   UNL     1     -34.051   2.811  11.423  1.00  0.00    -0.050 Br
ENDROOT
TORSDOF 0
ENDMDL
