MODEL 1
REMARK VINA RESULT:    -8.606      0.000      0.000
REMARK INTER + INTRA:         -10.773
REMARK INTER:                 -10.367
REMARK INTRA:                  -0.406
REMARK UNBOUND:                -0.406
REMARK SMILES O=[N+]([O-])c1ccccc1C=Nc1ccc(O)cc1
REMARK SMILES IDX 11 1 10 2 12 3 15 4 14 5 17 6 13 7 18 8 16 9 9 11 4 12 8 13
REMARK SMILES IDX 5 14 7 15 6 16 2 17 1 18 3 19
REMARK H PARENT 16 10
ROOT
ATOM      1  N   UNL     1     -28.114   7.683   7.676  1.00  0.00    -0.256 NA
ATOM      2  C   UNL     1     -27.452   8.715   7.251  1.00  0.00    +0.127 C 
ENDROOT
BRANCH   1   3
ATOM      3  C   UNL     1     -27.345   6.568   8.036  1.00  0.00    +0.063 A 
ATOM      4  C   UNL     1     -25.821   4.356   8.783  1.00  0.00    +0.115 A 
ATOM      5  C   UNL     1     -27.199   4.336   8.967  1.00  0.00    +0.048 A 
ATOM      6  C   UNL     1     -25.190   5.471   8.240  1.00  0.00    +0.048 A 
ATOM      7  C   UNL     1     -27.960   5.446   8.597  1.00  0.00    +0.032 A 
ATOM      8  C   UNL     1     -25.957   6.579   7.872  1.00  0.00    +0.032 A 
BRANCH   4   9
ATOM      9  O   UNL     1     -25.114   3.253   9.158  1.00  0.00    -0.508 OA
ATOM     10  H   UNL     1     -24.261   3.258   8.693  1.00  0.00    +0.293 HD
ENDBRANCH   4   9
ENDBRANCH   1   3
BRANCH   2  11
ATOM     11  C   UNL     1     -28.147   9.955   6.833  1.00  0.00    +0.071 A 
ATOM     12  C   UNL     1     -27.677  10.780   5.807  1.00  0.00    +0.278 A 
ATOM     13  C   UNL     1     -29.348  10.307   7.468  1.00  0.00    +0.017 A 
ATOM     14  C   UNL     1     -28.383  11.921   5.397  1.00  0.00    +0.086 A 
ATOM     15  C   UNL     1     -30.055  11.447   7.073  1.00  0.00    +0.001 A 
ATOM     16  C   UNL     1     -29.576  12.251   6.037  1.00  0.00    +0.007 A 
BRANCH  12  17
ATOM     17  N   UNL     1     -26.426  10.498   5.137  1.00  0.00    +0.063 N 
ATOM     18  O   UNL     1     -25.416  11.076   5.557  1.00  0.00    -0.258 OA
ATOM     19  O   UNL     1     -26.465   9.713   4.182  1.00  0.00    -0.258 OA
ENDBRANCH  12  17
ENDBRANCH   2  11
TORSDOF 4
ENDMDL
MODEL 2
REMARK VINA RESULT:    -8.027      3.367      4.156
REMARK INTER + INTRA:         -10.076
REMARK INTER:                  -9.660
REMARK INTRA:                  -0.415
REMARK UNBOUND:                -0.406
REMARK SMILES O=[N+]([O-])c1ccccc1C=Nc1ccc(O)cc1
REMARK SMILES IDX 11 1 10 2 12 3 15 4 14 5 17 6 13 7 18 8 16 9 9 11 4 12 8 13
REMARK SMILES IDX 5 14 7 15 6 16 2 17 1 18 3 19
REMARK H PARENT 16 10
ROOT
ATOM      1  N   UNL     1     -30.952   8.843   6.665  1.00  0.00    -0.256 NA
ATOM      2  C   UNL     1     -29.729   9.122   6.992  1.00  0.00    +0.127 C 
ENDROOT
BRANCH   1   3
ATOM      3  C   UNL     1     -31.496   7.691   7.251  1.00  0.00    +0.063 A 
ATOM      4  C   UNL     1     -32.599   5.419   8.432  1.00  0.00    +0.115 A 
ATOM      5  C   UNL     1     -33.312   6.100   7.452  1.00  0.00    +0.048 A 
ATOM      6  C   UNL     1     -31.344   5.863   8.840  1.00  0.00    +0.048 A 
ATOM      7  C   UNL     1     -32.760   7.240   6.865  1.00  0.00    +0.032 A 
ATOM      8  C   UNL     1     -30.798   7.005   8.249  1.00  0.00    +0.032 A 
BRANCH   4   9
ATOM      9  O   UNL     1     -33.173   4.311   8.980  1.00  0.00    -0.508 OA
ATOM     10  H   UNL     1     -32.468   3.717   9.287  1.00  0.00    +0.293 HD
ENDBRANCH   4   9
ENDBRANCH   1   3
BRANCH   2  11
ATOM     11  C   UNL     1     -29.035  10.308   6.437  1.00  0.00    +0.071 A 
ATOM     12  C   UNL     1     -27.708  10.276   6.000  1.00  0.00    +0.278 A 
ATOM     13  C   UNL     1     -29.746  11.511   6.311  1.00  0.00    +0.017 A 
ATOM     14  C   UNL     1     -27.093  11.402   5.431  1.00  0.00    +0.086 A 
ATOM     15  C   UNL     1     -29.140  12.642   5.752  1.00  0.00    +0.001 A 
ATOM     16  C   UNL     1     -27.817  12.587   5.310  1.00  0.00    +0.007 A 
BRANCH  12  17
ATOM     17  N   UNL     1     -26.905   9.081   6.137  1.00  0.00    +0.063 N 
ATOM     18  O   UNL     1     -26.337   8.902   7.221  1.00  0.00    -0.258 OA
ATOM     19  O   UNL     1     -26.835   8.336   5.152  1.00  0.00    -0.258 OA
ENDBRANCH  12  17
ENDBRANCH   2  11
TORSDOF 4
ENDMDL
MODEL 3
REMARK VINA RESULT:    -7.828      3.052      8.016
REMARK INTER + INTRA:          -9.837
REMARK INTER:                  -9.423
REMARK INTRA:                  -0.414
REMARK UNBOUND:                -0.406
REMARK SMILES O=[N+]([O-])c1ccccc1C=Nc1ccc(O)cc1
REMARK SMILES IDX 11 1 10 2 12 3 15 4 14 5 17 6 13 7 18 8 16 9 9 11 4 12 8 13
REMARK SMILES IDX 5 14 7 15 6 16 2 17 1 18 3 19
REMARK H PARENT 16 10
ROOT
ATOM      1  N   UNL     1     -27.034   4.890   9.114  1.00  0.00    -0.256 NA
ATOM      2  C   UNL     1     -26.057   4.156   9.550  1.00  0.00    +0.127 C 
ENDROOT
BRANCH   1   3
ATOM      3  C   UNL     1     -26.677   5.934   8.249  1.00  0.00    +0.063 A 
ATOM      4  C   UNL     1     -25.948   8.022   6.552  1.00  0.00    +0.115 A 
ATOM      5  C   UNL     1     -25.034   7.013   6.833  1.00  0.00    +0.048 A 
ATOM      6  C   UNL     1     -27.220   8.010   7.115  1.00  0.00    +0.048 A 
ATOM      7  C   UNL     1     -25.399   5.970   7.687  1.00  0.00    +0.032 A 
ATOM      8  C   UNL     1     -27.579   6.964   7.969  1.00  0.00    +0.032 A 
BRANCH   4   9
ATOM      9  O   UNL     1     -25.552   9.021   5.713  1.00  0.00    -0.508 OA
ATOM     10  H   UNL     1     -25.591   9.863   6.195  1.00  0.00    +0.293 HD
ENDBRANCH   4   9
ENDBRANCH   1   3
BRANCH   2  11
ATOM     11  C   UNL     1     -26.299   3.025  10.476  1.00  0.00    +0.071 A 
ATOM     12  C   UNL     1     -25.297   2.128  10.858  1.00  0.00    +0.278 A 
ATOM     13  C   UNL     1     -27.580   2.860  11.024  1.00  0.00    +0.017 A 
ATOM     14  C   UNL     1     -25.543   1.097  11.777  1.00  0.00    +0.086 A 
ATOM     15  C   UNL     1     -27.838   1.830  11.935  1.00  0.00    +0.001 A 
ATOM     16  C   UNL     1     -26.821   0.952  12.314  1.00  0.00    +0.007 A 
BRANCH  12  17
ATOM     17  N   UNL     1     -23.965   2.216  10.301  1.00  0.00    +0.063 N 
ATOM     18  O   UNL     1     -23.770   1.671   9.208  1.00  0.00    -0.258 OA
ATOM     19  O   UNL     1     -23.115   2.817  10.970  1.00  0.00    -0.258 OA
ENDBRANCH  12  17
ENDBRANCH   2  11
TORSDOF 4
ENDMDL
MODEL 4
REMARK VINA RESULT:    -7.704      4.064      4.912
REMARK INTER + INTRA:          -9.686
REMARK INTER:                  -9.250
REMARK INTRA:                  -0.436
REMARK UNBOUND:                -0.406
REMARK SMILES O=[N+]([O-])c1ccccc1C=Nc1ccc(O)cc1
REMARK SMILES IDX 11 1 10 2 12 3 15 4 14 5 17 6 13 7 18 8 16 9 9 11 4 12 8 13
REMARK SMILES IDX 5 14 7 15 6 16 2 17 1 18 3 19
REMARK H PARENT 16 10
ROOT
ATOM      1  N   UNL     1     -30.716   8.156   6.525  1.00  0.00    -0.256 NA
ATOM      2  C   UNL     1     -29.772   8.753   7.183  1.00  0.00    +0.127 C 
ENDROOT
BRANCH   1   3
ATOM      3  C   UNL     1     -31.477   7.229   7.250  1.00  0.00    +0.063 A 
ATOM      4  C   UNL     1     -32.970   5.360   8.682  1.00  0.00    +0.115 A 
ATOM      5  C   UNL     1     -31.693   5.699   9.115  1.00  0.00    +0.048 A 
ATOM      6  C   UNL     1     -33.510   5.934   7.535  1.00  0.00    +0.048 A 
ATOM      7  C   UNL     1     -30.945   6.631   8.395  1.00  0.00    +0.032 A 
ATOM      8  C   UNL     1     -32.756   6.866   6.818  1.00  0.00    +0.032 A 
BRANCH   4   9
ATOM      9  O   UNL     1     -33.667   4.445   9.414  1.00  0.00    -0.508 OA
ATOM     10  H   UNL     1     -34.589   4.743   9.485  1.00  0.00    +0.293 HD
ENDBRANCH   4   9
ENDBRANCH   1   3
BRANCH   2  11
ATOM     11  C   UNL     1     -28.891   9.751   6.531  1.00  0.00    +0.071 A 
ATOM     12  C   UNL     1     -29.261  11.086   6.347  1.00  0.00    +0.278 A 
ATOM     13  C   UNL     1     -27.615   9.352   6.106  1.00  0.00    +0.017 A 
ATOM     14  C   UNL     1     -28.386  12.020   5.772  1.00  0.00    +0.086 A 
ATOM     15  C   UNL     1     -26.737  10.274   5.524  1.00  0.00    +0.001 A 
ATOM     16  C   UNL     1     -27.121  11.606   5.360  1.00  0.00    +0.007 A 
BRANCH  12  17
ATOM     17  N   UNL     1     -30.576  11.555   6.726  1.00  0.00    +0.063 N 
ATOM     18  O   UNL     1     -31.474  11.470   5.878  1.00  0.00    -0.258 OA
ATOM     19  O   UNL     1     -30.700  12.021   7.865  1.00  0.00    -0.258 OA
ENDBRANCH  12  17
ENDBRANCH   2  11
TORSDOF 4
ENDMDL
MODEL 5
REMARK VINA RESULT:    -7.580      8.555     10.324
REMARK INTER + INTRA:          -9.537
REMARK INTER:                  -9.103
REMARK INTRA:                  -0.435
REMARK UNBOUND:                -0.406
REMARK SMILES O=[N+]([O-])c1ccccc1C=Nc1ccc(O)cc1
REMARK SMILES IDX 11 1 10 2 12 3 15 4 14 5 17 6 13 7 18 8 16 9 9 11 4 12 8 13
REMARK SMILES IDX 5 14 7 15 6 16 2 17 1 18 3 19
REMARK H PARENT 16 10
ROOT
ATOM      1  N   UNL     1     -34.884   4.850   7.977  1.00  0.00    -0.256 NA
ATOM      2  C   UNL     1     -35.212   5.051   9.216  1.00  0.00    +0.127 C 
ENDROOT
BRANCH   1   3
ATOM      3  C   UNL     1     -33.860   5.664   7.474  1.00  0.00    +0.063 A 
ATOM      4  C   UNL     1     -31.833   7.307   6.491  1.00  0.00    +0.115 A 
ATOM      5  C   UNL     1     -31.785   6.868   7.809  1.00  0.00    +0.048 A 
ATOM      6  C   UNL     1     -32.887   6.945   5.657  1.00  0.00    +0.048 A 
ATOM      7  C   UNL     1     -32.803   6.049   8.301  1.00  0.00    +0.032 A 
ATOM      8  C   UNL     1     -33.903   6.126   6.155  1.00  0.00    +0.032 A 
BRANCH   4   9
ATOM      9  O   UNL     1     -30.820   8.105   6.050  1.00  0.00    -0.508 OA
ATOM     10  H   UNL     1     -30.462   7.727   5.231  1.00  0.00    +0.293 HD
ENDBRANCH   4   9
ENDBRANCH   1   3
BRANCH   2  11
ATOM     11  C   UNL     1     -36.284   4.262   9.866  1.00  0.00    +0.071 A 
ATOM     12  C   UNL     1     -37.520   4.810  10.223  1.00  0.00    +0.278 A 
ATOM     13  C   UNL     1     -36.070   2.897  10.107  1.00  0.00    +0.017 A 
ATOM     14  C   UNL     1     -38.536   4.026  10.791  1.00  0.00    +0.086 A 
ATOM     15  C   UNL     1     -37.073   2.108  10.681  1.00  0.00    +0.001 A 
ATOM     16  C   UNL     1     -38.306   2.671  11.019  1.00  0.00    +0.007 A 
BRANCH  12  17
ATOM     17  N   UNL     1     -37.793   6.218  10.039  1.00  0.00    +0.063 N 
ATOM     18  O   UNL     1     -37.450   6.985  10.947  1.00  0.00    -0.258 OA
ATOM     19  O   UNL     1     -38.366   6.547   8.993  1.00  0.00    -0.258 OA
ENDBRANCH  12  17
ENDBRANCH   2  11
TORSDOF 4
ENDMDL
MODEL 6
REMARK VINA RESULT:    -7.454      3.246      8.426
REMARK INTER + INTRA:          -9.385
REMARK INTER:                  -8.956
REMARK INTRA:                  -0.429
REMARK UNBOUND:                -0.406
REMARK SMILES O=[N+]([O-])c1ccccc1C=Nc1ccc(O)cc1
REMARK SMILES IDX 11 1 10 2 12 3 15 4 14 5 17 6 13 7 18 8 16 9 9 11 4 12 8 13
REMARK SMILES IDX 5 14 7 15 6 16 2 17 1 18 3 19
REMARK H PARENT 16 10
ROOT
ATOM      1  N   UNL     1     -25.475   4.485   8.508  1.00  0.00    -0.256 NA
ATOM      2  C   UNL     1     -25.443   4.321   9.795  1.00  0.00    +0.127 C 
ENDROOT
BRANCH   1   3
ATOM      3  C   UNL     1     -26.080   5.666   8.057  1.00  0.00    +0.063 A 
ATOM      4  C   UNL     1     -27.264   8.033   7.178  1.00  0.00    +0.115 A 
ATOM      5  C   UNL     1     -25.968   7.723   6.782  1.00  0.00    +0.048 A 
ATOM      6  C   UNL     1     -27.976   7.181   8.017  1.00  0.00    +0.048 A 
ATOM      7  C   UNL     1     -25.375   6.541   7.226  1.00  0.00    +0.032 A 
ATOM      8  C   UNL     1     -27.377   5.999   8.459  1.00  0.00    +0.032 A 
BRANCH   4   9
ATOM      9  O   UNL     1     -27.806   9.197   6.722  1.00  0.00    -0.508 OA
ATOM     10  H   UNL     1     -28.654   9.342   7.174  1.00  0.00    +0.293 HD
ENDBRANCH   4   9
ENDBRANCH   1   3
BRANCH   2  11
ATOM     11  C   UNL     1     -24.838   3.111  10.401  1.00  0.00    +0.071 A 
ATOM     12  C   UNL     1     -25.599   2.063  10.926  1.00  0.00    +0.278 A 
ATOM     13  C   UNL     1     -23.440   2.991  10.421  1.00  0.00    +0.017 A 
ATOM     14  C   UNL     1     -24.999   0.907  11.448  1.00  0.00    +0.086 A 
ATOM     15  C   UNL     1     -22.831   1.846  10.946  1.00  0.00    +0.001 A 
ATOM     16  C   UNL     1     -23.608   0.804  11.455  1.00  0.00    +0.007 A 
BRANCH  12  17
ATOM     17  N   UNL     1     -27.043   2.139  10.973  1.00  0.00    +0.063 N 
ATOM     18  O   UNL     1     -27.554   2.559  12.019  1.00  0.00    -0.258 OA
ATOM     19  O   UNL     1     -27.658   1.763   9.969  1.00  0.00    -0.258 OA
ENDBRANCH  12  17
ENDBRANCH   2  11
TORSDOF 4
ENDMDL
MODEL 7
REMARK VINA RESULT:    -7.340      7.689      9.422
REMARK INTER + INTRA:          -9.249
REMARK INTER:                  -8.829
REMARK INTRA:                  -0.420
REMARK UNBOUND:                -0.406
REMARK SMILES O=[N+]([O-])c1ccccc1C=Nc1ccc(O)cc1
REMARK SMILES IDX 11 1 10 2 12 3 15 4 14 5 17 6 13 7 18 8 16 9 9 11 4 12 8 13
REMARK SMILES IDX 5 14 7 15 6 16 2 17 1 18 3 19
REMARK H PARENT 16 10
ROOT
ATOM      1  N   UNL     1     -27.206   0.694  10.991  1.00  0.00    -0.256 NA
ATOM      2  C   UNL     1     -26.367   0.871  10.018  1.00  0.00    +0.127 C 
ENDROOT
BRANCH   1   3
ATOM      3  C   UNL     1     -28.562   0.663  10.633  1.00  0.00    +0.063 A 
ATOM      4  C   UNL     1     -31.248   0.597   9.891  1.00  0.00    +0.115 A 
ATOM      5  C   UNL     1     -30.482  -0.559   9.805  1.00  0.00    +0.048 A 
ATOM      6  C   UNL     1     -30.689   1.792  10.334  1.00  0.00    +0.048 A 
ATOM      7  C   UNL     1     -29.136  -0.524  10.172  1.00  0.00    +0.032 A 
ATOM      8  C   UNL     1     -29.341   1.821  10.700  1.00  0.00    +0.032 A 
BRANCH   4   9
ATOM      9  O   UNL     1     -32.558   0.520   9.522  1.00  0.00    -0.508 OA
ATOM     10  H   UNL     1     -33.075   1.115  10.090  1.00  0.00    +0.293 HD
ENDBRANCH   4   9
ENDBRANCH   1   3
BRANCH   2  11
ATOM     11  C   UNL     1     -24.907   0.931  10.262  1.00  0.00    +0.071 A 
ATOM     12  C   UNL     1     -24.213   2.133  10.427  1.00  0.00    +0.278 A 
ATOM     13  C   UNL     1     -24.188  -0.269  10.368  1.00  0.00    +0.017 A 
ATOM     14  C   UNL     1     -22.838   2.157  10.708  1.00  0.00    +0.086 A 
ATOM     15  C   UNL     1     -22.816  -0.256  10.641  1.00  0.00    +0.001 A 
ATOM     16  C   UNL     1     -22.143   0.954  10.814  1.00  0.00    +0.007 A 
BRANCH  12  17
ATOM     17  N   UNL     1     -24.884   3.407  10.291  1.00  0.00    +0.063 N 
ATOM     18  O   UNL     1     -25.036   3.848   9.144  1.00  0.00    -0.258 OA
ATOM     19  O   UNL     1     -25.241   3.968  11.334  1.00  0.00    -0.258 OA
ENDBRANCH  12  17
ENDBRANCH   2  11
TORSDOF 4
ENDMDL
MODEL 8
REMARK VINA RESULT:    -7.129      4.583      5.420
REMARK INTER + INTRA:          -8.994
REMARK INTER:                  -8.863
REMARK INTRA:                  -0.131
REMARK UNBOUND:                -0.406
REMARK SMILES O=[N+]([O-])c1ccccc1C=Nc1ccc(O)cc1
REMARK SMILES IDX 11 1 10 2 12 3 15 4 14 5 17 6 13 7 18 8 16 9 9 11 4 12 8 13
REMARK SMILES IDX 5 14 7 15 6 16 2 17 1 18 3 19
REMARK H PARENT 16 10
ROOT
ATOM      1  N   UNL     1     -32.151   7.460   7.964  1.00  0.00    -0.256 NA
ATOM      2  C   UNL     1     -31.438   7.803   6.936  1.00  0.00    +0.127 C 
ENDROOT
BRANCH   1   3
ATOM      3  C   UNL     1     -32.834   6.240   7.856  1.00  0.00    +0.063 A 
ATOM      4  C   UNL     1     -34.164   3.800   7.635  1.00  0.00    +0.115 A 
ATOM      5  C   UNL     1     -33.353   4.045   8.737  1.00  0.00    +0.048 A 
ATOM      6  C   UNL     1     -34.313   4.755   6.633  1.00  0.00    +0.048 A 
ATOM      7  C   UNL     1     -32.684   5.265   8.844  1.00  0.00    +0.032 A 
ATOM      8  C   UNL     1     -33.641   5.974   6.746  1.00  0.00    +0.032 A 
BRANCH   4   9
ATOM      9  O   UNL     1     -34.799   2.596   7.569  1.00  0.00    -0.508 OA
ATOM     10  H   UNL     1     -34.715   2.153   8.429  1.00  0.00    +0.293 HD
ENDBRANCH   4   9
ENDBRANCH   1   3
BRANCH   2  11
ATOM     11  C   UNL     1     -30.673   9.072   6.920  1.00  0.00    +0.071 A 
ATOM     12  C   UNL     1     -29.295   9.132   7.148  1.00  0.00    +0.278 A 
ATOM     13  C   UNL     1     -31.349  10.267   6.630  1.00  0.00    +0.017 A 
ATOM     14  C   UNL     1     -28.588  10.342   7.076  1.00  0.00    +0.086 A 
ATOM     15  C   UNL     1     -30.655  11.480   6.564  1.00  0.00    +0.001 A 
ATOM     16  C   UNL     1     -29.277  11.518   6.782  1.00  0.00    +0.007 A 
BRANCH  12  17
ATOM     17  N   UNL     1     -28.544   7.945   7.491  1.00  0.00    +0.063 N 
ATOM     18  O   UNL     1     -28.913   7.307   8.485  1.00  0.00    -0.258 OA
ATOM     19  O   UNL     1     -27.576   7.666   6.772  1.00  0.00    -0.258 OA
ENDBRANCH  12  17
ENDBRANCH   2  11
TORSDOF 4
ENDMDL
MODEL 9
REMARK VINA RESULT:    -7.066      7.794      9.725
REMARK INTER + INTRA:          -8.918
REMARK INTER:                  -8.502
REMARK INTRA:                  -0.415
REMARK UNBOUND:                -0.406
REMARK SMILES O=[N+]([O-])c1ccccc1C=Nc1ccc(O)cc1
REMARK SMILES IDX 11 1 10 2 12 3 15 4 14 5 17 6 13 7 18 8 16 9 9 11 4 12 8 13
REMARK SMILES IDX 5 14 7 15 6 16 2 17 1 18 3 19
REMARK H PARENT 16 10
ROOT
ATOM      1  N   UNL     1     -27.194  -0.418  11.134  1.00  0.00    -0.256 NA
ATOM      2  C   UNL     1     -26.889   0.826  10.930  1.00  0.00    +0.127 C 
ENDROOT
BRANCH   1   3
ATOM      3  C   UNL     1     -28.561  -0.726  11.109  1.00  0.00    +0.063 A 
ATOM      4  C   UNL     1     -31.274  -1.369  11.057  1.00  0.00    +0.115 A 
ATOM      5  C   UNL     1     -30.515  -1.675  12.181  1.00  0.00    +0.048 A 
ATOM      6  C   UNL     1     -30.694  -0.754   9.951  1.00  0.00    +0.048 A 
ATOM      7  C   UNL     1     -29.157  -1.357  12.204  1.00  0.00    +0.032 A 
ATOM      8  C   UNL     1     -29.334  -0.438   9.980  1.00  0.00    +0.032 A 
BRANCH   4   9
ATOM      9  O   UNL     1     -32.597  -1.696  11.075  1.00  0.00    -0.508 OA
ATOM     10  H   UNL     1     -32.791  -2.246  10.298  1.00  0.00    +0.293 HD
ENDBRANCH   4   9
ENDBRANCH   1   3
BRANCH   2  11
ATOM     11  C   UNL     1     -25.479   1.283  10.938  1.00  0.00    +0.071 A 
ATOM     12  C   UNL     1     -25.115   2.620  11.125  1.00  0.00    +0.278 A 
ATOM     13  C   UNL     1     -24.458   0.333  10.784  1.00  0.00    +0.017 A 
ATOM     14  C   UNL     1     -23.770   3.016  11.178  1.00  0.00    +0.086 A 
ATOM     15  C   UNL     1     -23.114   0.719  10.828  1.00  0.00    +0.001 A 
ATOM     16  C   UNL     1     -22.770   2.057  11.028  1.00  0.00    +0.007 A 
BRANCH  12  17
ATOM     17  N   UNL     1     -26.117   3.656  11.249  1.00  0.00    +0.063 N 
ATOM     18  O   UNL     1     -26.518   4.185  10.205  1.00  0.00    -0.258 OA
ATOM     19  O   UNL     1     -26.485   3.946  12.394  1.00  0.00    -0.258 OA
ENDBRANCH  12  17
ENDBRANCH   2  11
TORSDOF 4
ENDMDL
