REMARK SMILES Cc1nc(Nc2cccc(Cl)c2)c2cnn(-c3ccc(Cl)cc3)c2n1
REMARK SMILES IDX 1 1 2 2 3 3 4 4 13 5 14 6 15 7 16 8 24 9 25 10 5 11 6 13
REMARK SMILES IDX 12 14 7 15 10 16 8 17 9 18 11 19 17 20 18 21 23 22 19 23
REMARK SMILES IDX 22 24 20 25 21 26
REMARK H PARENT 5 12
ROOT
ATOM      1  C   UNL     1      -0.101   2.502   2.205  1.00  0.00    +0.090 C 
ATOM      2  C   UNL     1      -0.102   1.380   1.212  1.00  0.00    +0.130 A 
ATOM      3  N   UNL     1       1.101   0.892   0.850  1.00  0.00    -0.215 NA
ATOM      4  C   UNL     1       1.190  -0.139  -0.025  1.00  0.00    +0.145 A 
ATOM      5  C   UNL     1      -0.020  -0.661  -0.512  1.00  0.00    +0.082 A 
ATOM      6  C   UNL     1      -0.422  -1.678  -1.392  1.00  0.00    +0.150 A 
ATOM      7  N   UNL     1      -1.744  -1.772  -1.516  1.00  0.00    -0.174 NA
ATOM      8  N   UNL     1      -2.239  -0.792  -0.697  1.00  0.00    -0.215 N 
ATOM      9  C   UNL     1      -1.205  -0.095  -0.070  1.00  0.00    +0.168 A 
ATOM     10  N   UNL     1      -1.297   0.930   0.800  1.00  0.00    -0.213 NA
ENDROOT
BRANCH   4  11
ATOM     11  N   UNL     1       2.427  -0.667  -0.426  1.00  0.00    -0.339 N 
ATOM     12  H   UNL     1       2.347  -1.439  -1.073  1.00  0.00    +0.168 HD
BRANCH  11  13
ATOM     13  C   UNL     1       3.755  -0.332  -0.103  1.00  0.00    +0.041 A 
ATOM     14  C   UNL     1       4.115   0.715   0.752  1.00  0.00    +0.046 A 
ATOM     15  C   UNL     1       4.791  -1.097  -0.671  1.00  0.00    +0.026 A 
ATOM     16  C   UNL     1       5.459   0.985   1.027  1.00  0.00    +0.043 A 
ATOM     17  C   UNL     1       6.136  -0.826  -0.397  1.00  0.00    +0.004 A 
ATOM     18  C   UNL     1       6.471   0.220   0.456  1.00  0.00    +0.020 A 
ATOM     19 Cl   UNL     1       5.870   2.282   2.084  1.00  0.00    -0.084 Cl
ENDBRANCH  11  13
ENDBRANCH   4  11
BRANCH   8  20
ATOM     20  C   UNL     1      -3.654  -0.613  -0.591  1.00  0.00    +0.067 A 
ATOM     21  C   UNL     1      -4.507  -1.452  -1.333  1.00  0.00    +0.030 A 
ATOM     22  C   UNL     1      -4.221   0.371   0.230  1.00  0.00    +0.030 A 
ATOM     23  C   UNL     1      -5.895  -1.307  -1.254  1.00  0.00    +0.023 A 
ATOM     24  C   UNL     1      -5.612   0.514   0.305  1.00  0.00    +0.023 A 
ATOM     25  C   UNL     1      -6.442  -0.324  -0.435  1.00  0.00    +0.041 A 
ATOM     26 Cl   UNL     1      -8.150  -0.143  -0.336  1.00  0.00    -0.084 Cl
ENDBRANCH   8  20
TORSDOF 3
