REMARK SMILES CCCCNc1ncnc2c1cnn2-c1ccccc1
REMARK SMILES IDX 4 1 3 2 2 3 1 4 5 5 6 7 11 8 7 9 12 10 10 11 8 12 13 13
REMARK SMILES IDX 14 14 9 15 15 16 16 17 20 18 17 19 19 20 18 21
REMARK H PARENT 5 6
ROOT
ATOM      1  C   UNL     1      -3.180   1.240   0.420  1.00  0.00    +0.114 C 
ENDROOT
BRANCH   1   2
ATOM      2  C   UNL     1      -4.566   0.591   0.492  1.00  0.00    +0.021 C 
BRANCH   2   3
ATOM      3  C   UNL     1      -4.912  -0.218  -0.761  1.00  0.00    -0.002 C 
ATOM      4  C   UNL     1      -6.322  -0.784  -0.682  1.00  0.00    +0.004 C 
ENDBRANCH   2   3
ENDBRANCH   1   2
BRANCH   1   5
ATOM      5  N   UNL     1      -2.137   0.232   0.558  1.00  0.00    -0.369 N 
ATOM      6  H   UNL     1      -2.255  -0.593  -0.019  1.00  0.00    +0.162 HD
BRANCH   5   7
ATOM      7  C   UNL     1      -0.825   0.710   0.530  1.00  0.00    +0.140 A 
ATOM      8  C   UNL     1       0.269  -0.131   0.281  1.00  0.00    +0.082 A 
ATOM      9  N   UNL     1      -0.567   2.019   0.759  1.00  0.00    -0.219 NA
ATOM     10  C   UNL     1       0.477  -1.494   0.024  1.00  0.00    +0.150 A 
ATOM     11  C   UNL     1       1.539   0.427   0.271  1.00  0.00    +0.168 A 
ATOM     12  C   UNL     1       0.707   2.447   0.730  1.00  0.00    +0.226 A 
ATOM     13  N   UNL     1       1.760  -1.803  -0.159  1.00  0.00    -0.174 NA
ATOM     14  N   UNL     1       2.427  -0.616  -0.001  1.00  0.00    -0.215 N 
ATOM     15  N   UNL     1       1.813   1.730   0.489  1.00  0.00    -0.216 NA
BRANCH  14  16
ATOM     16  C   UNL     1       3.851  -0.589  -0.126  1.00  0.00    +0.067 A 
ATOM     17  C   UNL     1       4.589   0.592   0.024  1.00  0.00    +0.028 A 
ATOM     18  C   UNL     1       4.536  -1.785  -0.407  1.00  0.00    +0.028 A 
ATOM     19  C   UNL     1       5.982   0.576  -0.107  1.00  0.00    +0.002 A 
ATOM     20  C   UNL     1       5.928  -1.795  -0.536  1.00  0.00    +0.002 A 
ATOM     21  C   UNL     1       6.650  -0.615  -0.386  1.00  0.00    +0.000 A 
ENDBRANCH  14  16
ENDBRANCH   5   7
ENDBRANCH   1   5
TORSDOF 5
