MODEL 1
REMARK VINA RESULT:    -9.526      0.000      0.000
REMARK INTER + INTRA:         -10.584
REMARK INTER:                 -10.639
REMARK INTRA:                   0.056
REMARK UNBOUND:                 0.056
REMARK SMILES O=C1OC(c2ccccc2)=NC1=Cc1ccccc1
REMARK SMILES IDX 1 1 2 2 3 3 4 4 11 5 12 6 13 7 5 8 6 9 10 10 7 11 9 12 8 13
REMARK SMILES IDX 14 14 15 15 19 16 16 17 18 18 17 19
REMARK H PARENT
ROOT
ATOM      1  O   UNL     1     -28.559   6.658   8.809  1.00  0.00    -0.244 OA
ATOM      2  C   UNL     1     -27.939   7.433   8.111  1.00  0.00    +0.363 C 
ATOM      3  O   UNL     1     -28.395   8.623   7.630  1.00  0.00    -0.402 OA
ATOM      4  C   UNL     1     -27.387   9.159   6.905  1.00  0.00    +0.231 C 
ATOM      5  N   UNL     1     -26.283   8.489   6.824  1.00  0.00    -0.205 NA
ATOM      6  C   UNL     1     -26.548   7.365   7.570  1.00  0.00    +0.153 C 
ATOM      7  C   UNL     1     -25.656   6.380   7.735  1.00  0.00    +0.044 C 
ENDROOT
BRANCH   4   8
ATOM      8  C   UNL     1     -27.675  10.463   6.289  1.00  0.00    +0.037 A 
ATOM      9  C   UNL     1     -26.709  11.150   5.544  1.00  0.00    +0.014 A 
ATOM     10  C   UNL     1     -28.948  11.023   6.457  1.00  0.00    +0.014 A 
ATOM     11  C   UNL     1     -27.015  12.387   4.973  1.00  0.00    +0.001 A 
ATOM     12  C   UNL     1     -29.250  12.260   5.883  1.00  0.00    +0.001 A 
ATOM     13  C   UNL     1     -28.285  12.940   5.143  1.00  0.00    +0.000 A 
ENDBRANCH   4   8
BRANCH   7  14
ATOM     14  C   UNL     1     -25.830   5.142   8.496  1.00  0.00    -0.023 A 
ATOM     15  C   UNL     1     -24.988   4.887   9.585  1.00  0.00    +0.008 A 
ATOM     16  C   UNL     1     -26.854   4.235   8.198  1.00  0.00    +0.008 A 
ATOM     17  C   UNL     1     -25.154   3.732  10.353  1.00  0.00    +0.001 A 
ATOM     18  C   UNL     1     -27.016   3.079   8.966  1.00  0.00    +0.001 A 
ATOM     19  C   UNL     1     -26.167   2.827  10.041  1.00  0.00    +0.000 A 
ENDBRANCH   7  14
TORSDOF 2
ENDMDL
MODEL 2
REMARK VINA RESULT:    -9.226      1.784      7.610
REMARK INTER + INTRA:         -10.249
REMARK INTER:                  -9.950
REMARK INTRA:                  -0.299
REMARK UNBOUND:                 0.056
REMARK SMILES O=C1OC(c2ccccc2)=NC1=Cc1ccccc1
REMARK SMILES IDX 1 1 2 2 3 3 4 4 11 5 12 6 13 7 5 8 6 9 10 10 7 11 9 12 8 13
REMARK SMILES IDX 14 14 15 15 19 16 16 17 18 18 17 19
REMARK H PARENT
ROOT
ATOM      1  O   UNL     1     -27.878   7.114   8.406  1.00  0.00    -0.244 OA
ATOM      2  C   UNL     1     -27.034   6.244   8.436  1.00  0.00    +0.363 C 
ATOM      3  O   UNL     1     -27.064   5.119   9.204  1.00  0.00    -0.402 OA
ATOM      4  C   UNL     1     -25.935   4.430   8.926  1.00  0.00    +0.231 C 
ATOM      5  N   UNL     1     -25.120   4.935   8.056  1.00  0.00    -0.205 NA
ATOM      6  C   UNL     1     -25.747   6.102   7.688  1.00  0.00    +0.153 C 
ATOM      7  C   UNL     1     -25.222   6.956   6.800  1.00  0.00    +0.044 C 
ENDROOT
BRANCH   4   8
ATOM      8  C   UNL     1     -25.769   3.165   9.659  1.00  0.00    +0.037 A 
ATOM      9  C   UNL     1     -24.812   3.026  10.672  1.00  0.00    +0.014 A 
ATOM     10  C   UNL     1     -26.591   2.080   9.328  1.00  0.00    +0.014 A 
ATOM     11  C   UNL     1     -24.680   1.812  11.347  1.00  0.00    +0.001 A 
ATOM     12  C   UNL     1     -26.456   0.867  10.007  1.00  0.00    +0.001 A 
ATOM     13  C   UNL     1     -25.502   0.734  11.014  1.00  0.00    +0.000 A 
ENDBRANCH   4   8
BRANCH   7  14
ATOM     14  C   UNL     1     -25.793   8.224   6.341  1.00  0.00    -0.023 A 
ATOM     15  C   UNL     1     -25.222   9.426   6.776  1.00  0.00    +0.008 A 
ATOM     16  C   UNL     1     -26.857   8.263   5.433  1.00  0.00    +0.008 A 
ATOM     17  C   UNL     1     -25.722  10.649   6.326  1.00  0.00    +0.001 A 
ATOM     18  C   UNL     1     -27.357   9.488   4.985  1.00  0.00    +0.001 A 
ATOM     19  C   UNL     1     -26.791  10.680   5.432  1.00  0.00    +0.000 A 
ENDBRANCH   7  14
TORSDOF 2
ENDMDL
MODEL 3
REMARK VINA RESULT:    -9.181      5.544      6.547
REMARK INTER + INTRA:         -10.199
REMARK INTER:                  -9.798
REMARK INTRA:                  -0.401
REMARK UNBOUND:                 0.056
REMARK SMILES O=C1OC(c2ccccc2)=NC1=Cc1ccccc1
REMARK SMILES IDX 1 1 2 2 3 3 4 4 11 5 12 6 13 7 5 8 6 9 10 10 7 11 9 12 8 13
REMARK SMILES IDX 14 14 15 15 19 16 16 17 18 18 17 19
REMARK H PARENT
ROOT
ATOM      1  O   UNL     1     -32.026   5.501   8.916  1.00  0.00    -0.244 OA
ATOM      2  C   UNL     1     -31.987   6.471   8.190  1.00  0.00    +0.363 C 
ATOM      3  O   UNL     1     -30.927   7.313   8.028  1.00  0.00    -0.402 OA
ATOM      4  C   UNL     1     -31.311   8.250   7.132  1.00  0.00    +0.231 C 
ATOM      5  N   UNL     1     -32.508   8.164   6.647  1.00  0.00    -0.205 NA
ATOM      6  C   UNL     1     -33.015   7.049   7.272  1.00  0.00    +0.153 C 
ATOM      7  C   UNL     1     -34.261   6.607   7.062  1.00  0.00    +0.044 C 
ENDROOT
BRANCH   4   8
ATOM      8  C   UNL     1     -30.300   9.269   6.811  1.00  0.00    +0.037 A 
ATOM      9  C   UNL     1     -28.943   8.943   6.694  1.00  0.00    +0.014 A 
ATOM     10  C   UNL     1     -30.713  10.595   6.621  1.00  0.00    +0.014 A 
ATOM     11  C   UNL     1     -28.010   9.936   6.389  1.00  0.00    +0.001 A 
ATOM     12  C   UNL     1     -29.776  11.583   6.316  1.00  0.00    +0.001 A 
ATOM     13  C   UNL     1     -28.427  11.254   6.201  1.00  0.00    +0.000 A 
ENDBRANCH   4   8
BRANCH   7  14
ATOM     14  C   UNL     1     -34.906   5.443   7.673  1.00  0.00    -0.023 A 
ATOM     15  C   UNL     1     -35.743   5.631   8.780  1.00  0.00    +0.008 A 
ATOM     16  C   UNL     1     -34.753   4.157   7.142  1.00  0.00    +0.008 A 
ATOM     17  C   UNL     1     -36.400   4.544   9.361  1.00  0.00    +0.001 A 
ATOM     18  C   UNL     1     -35.410   3.072   7.726  1.00  0.00    +0.001 A 
ATOM     19  C   UNL     1     -36.232   3.264   8.835  1.00  0.00    +0.000 A 
ENDBRANCH   7  14
TORSDOF 2
ENDMDL
MODEL 4
REMARK VINA RESULT:    -8.832      4.362      7.841
REMARK INTER + INTRA:          -9.809
REMARK INTER:                 -10.002
REMARK INTRA:                   0.193
REMARK UNBOUND:                 0.056
REMARK SMILES O=C1OC(c2ccccc2)=NC1=Cc1ccccc1
REMARK SMILES IDX 1 1 2 2 3 3 4 4 11 5 12 6 13 7 5 8 6 9 10 10 7 11 9 12 8 13
REMARK SMILES IDX 14 14 15 15 19 16 16 17 18 18 17 19
REMARK H PARENT
ROOT
ATOM      1  O   UNL     1     -31.732   9.780   5.470  1.00  0.00    -0.244 OA
ATOM      2  C   UNL     1     -31.642   8.839   6.230  1.00  0.00    +0.363 C 
ATOM      3  O   UNL     1     -32.598   7.897   6.460  1.00  0.00    -0.402 OA
ATOM      4  C   UNL     1     -32.085   7.038   7.370  1.00  0.00    +0.231 C 
ATOM      5  N   UNL     1     -30.886   7.265   7.801  1.00  0.00    -0.205 NA
ATOM      6  C   UNL     1     -30.524   8.404   7.122  1.00  0.00    +0.153 C 
ATOM      7  C   UNL     1     -29.337   9.000   7.291  1.00  0.00    +0.044 C 
ENDROOT
BRANCH   4   8
ATOM      8  C   UNL     1     -32.969   5.930   7.763  1.00  0.00    +0.037 A 
ATOM      9  C   UNL     1     -34.137   5.637   7.048  1.00  0.00    +0.014 A 
ATOM     10  C   UNL     1     -32.627   5.157   8.880  1.00  0.00    +0.014 A 
ATOM     11  C   UNL     1     -34.954   4.578   7.449  1.00  0.00    +0.001 A 
ATOM     12  C   UNL     1     -33.447   4.098   9.276  1.00  0.00    +0.001 A 
ATOM     13  C   UNL     1     -34.609   3.810   8.562  1.00  0.00    +0.000 A 
ENDBRANCH   4   8
BRANCH   7  14
ATOM     14  C   UNL     1     -28.849  10.213   6.631  1.00  0.00    -0.023 A 
ATOM     15  C   UNL     1     -27.650  10.161   5.909  1.00  0.00    +0.008 A 
ATOM     16  C   UNL     1     -29.580  11.406   6.655  1.00  0.00    +0.008 A 
ATOM     17  C   UNL     1     -27.179  11.292   5.239  1.00  0.00    +0.001 A 
ATOM     18  C   UNL     1     -29.106  12.536   5.986  1.00  0.00    +0.001 A 
ATOM     19  C   UNL     1     -27.906  12.480   5.280  1.00  0.00    +0.000 A 
ENDBRANCH   7  14
TORSDOF 2
ENDMDL
MODEL 5
REMARK VINA RESULT:    -8.574      5.742      6.675
REMARK INTER + INTRA:          -9.520
REMARK INTER:                  -9.106
REMARK INTRA:                  -0.415
REMARK UNBOUND:                 0.056
REMARK SMILES O=C1OC(c2ccccc2)=NC1=Cc1ccccc1
REMARK SMILES IDX 1 1 2 2 3 3 4 4 11 5 12 6 13 7 5 8 6 9 10 10 7 11 9 12 8 13
REMARK SMILES IDX 14 14 15 15 19 16 16 17 18 18 17 19
REMARK H PARENT
ROOT
ATOM      1  O   UNL     1     -34.767   6.741   7.415  1.00  0.00    -0.244 OA
ATOM      2  C   UNL     1     -33.582   6.912   7.609  1.00  0.00    +0.363 C 
ATOM      3  O   UNL     1     -32.831   7.947   7.139  1.00  0.00    -0.402 OA
ATOM      4  C   UNL     1     -31.572   7.747   7.589  1.00  0.00    +0.231 C 
ATOM      5  N   UNL     1     -31.352   6.700   8.318  1.00  0.00    -0.205 NA
ATOM      6  C   UNL     1     -32.590   6.105   8.382  1.00  0.00    +0.153 C 
ATOM      7  C   UNL     1     -32.807   4.959   9.040  1.00  0.00    +0.044 C 
ENDROOT
BRANCH   4   8
ATOM      8  C   UNL     1     -30.588   8.766   7.190  1.00  0.00    +0.037 A 
ATOM      9  C   UNL     1     -30.966  10.091   6.941  1.00  0.00    +0.014 A 
ATOM     10  C   UNL     1     -29.245   8.392   7.056  1.00  0.00    +0.014 A 
ATOM     11  C   UNL     1     -30.007  11.032   6.563  1.00  0.00    +0.001 A 
ATOM     12  C   UNL     1     -28.289   9.337   6.679  1.00  0.00    +0.001 A 
ATOM     13  C   UNL     1     -28.670  10.655   6.432  1.00  0.00    +0.000 A 
ENDBRANCH   4   8
BRANCH   7  14
ATOM     14  C   UNL     1     -34.073   4.234   9.169  1.00  0.00    -0.023 A 
ATOM     15  C   UNL     1     -34.393   3.249   8.227  1.00  0.00    +0.008 A 
ATOM     16  C   UNL     1     -34.941   4.460  10.243  1.00  0.00    +0.008 A 
ATOM     17  C   UNL     1     -35.576   2.516   8.345  1.00  0.00    +0.001 A 
ATOM     18  C   UNL     1     -36.125   3.727  10.358  1.00  0.00    +0.001 A 
ATOM     19  C   UNL     1     -36.443   2.757   9.409  1.00  0.00    +0.000 A 
ENDBRANCH   7  14
TORSDOF 2
ENDMDL
MODEL 6
REMARK VINA RESULT:    -8.543      7.985     11.065
REMARK INTER + INTRA:          -9.487
REMARK INTER:                  -9.087
REMARK INTRA:                  -0.400
REMARK UNBOUND:                 0.056
REMARK SMILES O=C1OC(c2ccccc2)=NC1=Cc1ccccc1
REMARK SMILES IDX 1 1 2 2 3 3 4 4 11 5 12 6 13 7 5 8 6 9 10 10 7 11 9 12 8 13
REMARK SMILES IDX 14 14 15 15 19 16 16 17 18 18 17 19
REMARK H PARENT
ROOT
ATOM      1  O   UNL     1     -34.197   4.583   8.507  1.00  0.00    -0.244 OA
ATOM      2  C   UNL     1     -33.792   3.701   9.234  1.00  0.00    +0.363 C 
ATOM      3  O   UNL     1     -32.619   3.021   9.097  1.00  0.00    -0.402 OA
ATOM      4  C   UNL     1     -32.564   2.134  10.116  1.00  0.00    +0.231 C 
ATOM      5  N   UNL     1     -33.554   2.114  10.949  1.00  0.00    -0.205 NA
ATOM      6  C   UNL     1     -34.390   3.089  10.459  1.00  0.00    +0.153 C 
ATOM      7  C   UNL     1     -35.564   3.388  11.029  1.00  0.00    +0.044 C 
ENDROOT
BRANCH   4   8
ATOM      8  C   UNL     1     -31.362   1.287  10.154  1.00  0.00    +0.037 A 
ATOM      9  C   UNL     1     -30.115   1.803  10.528  1.00  0.00    +0.014 A 
ATOM     10  C   UNL     1     -31.476  -0.064   9.804  1.00  0.00    +0.014 A 
ATOM     11  C   UNL     1     -28.994   0.972  10.552  1.00  0.00    +0.001 A 
ATOM     12  C   UNL     1     -30.352  -0.892   9.831  1.00  0.00    +0.001 A 
ATOM     13  C   UNL     1     -29.113  -0.374  10.204  1.00  0.00    +0.000 A 
ENDBRANCH   4   8
BRANCH   7  14
ATOM     14  C   UNL     1     -36.533   4.396  10.593  1.00  0.00    -0.023 A 
ATOM     15  C   UNL     1     -37.574   4.015   9.737  1.00  0.00    +0.008 A 
ATOM     16  C   UNL     1     -36.479   5.715  11.058  1.00  0.00    +0.008 A 
ATOM     17  C   UNL     1     -38.534   4.946   9.334  1.00  0.00    +0.001 A 
ATOM     18  C   UNL     1     -37.439   6.645  10.652  1.00  0.00    +0.001 A 
ATOM     19  C   UNL     1     -38.465   6.261   9.790  1.00  0.00    +0.000 A 
ENDBRANCH   7  14
TORSDOF 2
ENDMDL
MODEL 7
REMARK VINA RESULT:    -8.011      8.727      9.872
REMARK INTER + INTRA:          -8.892
REMARK INTER:                  -8.475
REMARK INTRA:                  -0.417
REMARK UNBOUND:                 0.056
REMARK SMILES O=C1OC(c2ccccc2)=NC1=Cc1ccccc1
REMARK SMILES IDX 1 1 2 2 3 3 4 4 11 5 12 6 13 7 5 8 6 9 10 10 7 11 9 12 8 13
REMARK SMILES IDX 14 14 15 15 19 16 16 17 18 18 17 19
REMARK H PARENT
ROOT
ATOM      1  O   UNL     1     -32.230   3.396  10.010  1.00  0.00    -0.244 OA
ATOM      2  C   UNL     1     -33.413   3.183  10.175  1.00  0.00    +0.363 C 
ATOM      3  O   UNL     1     -34.426   4.070   9.974  1.00  0.00    -0.402 OA
ATOM      4  C   UNL     1     -35.574   3.422  10.275  1.00  0.00    +0.231 C 
ATOM      5  N   UNL     1     -35.486   2.190  10.660  1.00  0.00    -0.205 NA
ATOM      6  C   UNL     1     -34.132   1.953  10.626  1.00  0.00    +0.153 C 
ATOM      7  C   UNL     1     -33.596   0.777  10.975  1.00  0.00    +0.044 C 
ENDROOT
BRANCH   4   8
ATOM      8  C   UNL     1     -36.806   4.213  10.122  1.00  0.00    +0.037 A 
ATOM      9  C   UNL     1     -36.772   5.542   9.683  1.00  0.00    +0.014 A 
ATOM     10  C   UNL     1     -38.035   3.614  10.427  1.00  0.00    +0.014 A 
ATOM     11  C   UNL     1     -37.960   6.264   9.550  1.00  0.00    +0.001 A 
ATOM     12  C   UNL     1     -39.220   4.340  10.291  1.00  0.00    +0.001 A 
ATOM     13  C   UNL     1     -39.182   5.662   9.854  1.00  0.00    +0.000 A 
ENDBRANCH   4   8
BRANCH   7  14
ATOM     14  C   UNL     1     -32.177   0.414  10.985  1.00  0.00    -0.023 A 
ATOM     15  C   UNL     1     -31.420   0.654  12.138  1.00  0.00    +0.008 A 
ATOM     16  C   UNL     1     -31.574  -0.218   9.891  1.00  0.00    +0.008 A 
ATOM     17  C   UNL     1     -30.074   0.285  12.189  1.00  0.00    +0.001 A 
ATOM     18  C   UNL     1     -30.227  -0.584   9.944  1.00  0.00    +0.001 A 
ATOM     19  C   UNL     1     -29.477  -0.331  11.091  1.00  0.00    +0.000 A 
ENDBRANCH   7  14
TORSDOF 2
ENDMDL
MODEL 8
REMARK VINA RESULT:    -7.507      8.336     10.986
REMARK INTER + INTRA:          -8.329
REMARK INTER:                  -7.931
REMARK INTRA:                  -0.399
REMARK UNBOUND:                 0.056
REMARK SMILES O=C1OC(c2ccccc2)=NC1=Cc1ccccc1
REMARK SMILES IDX 1 1 2 2 3 3 4 4 11 5 12 6 13 7 5 8 6 9 10 10 7 11 9 12 8 13
REMARK SMILES IDX 14 14 15 15 19 16 16 17 18 18 17 19
REMARK H PARENT
ROOT
ATOM      1  O   UNL     1     -32.508   3.562   9.171  1.00  0.00    -0.244 OA
ATOM      2  C   UNL     1     -32.228   2.767  10.043  1.00  0.00    +0.363 C 
ATOM      3  O   UNL     1     -31.018   2.169  10.228  1.00  0.00    -0.402 OA
ATOM      4  C   UNL     1     -31.144   1.364  11.307  1.00  0.00    +0.231 C 
ATOM      5  N   UNL     1     -32.294   1.330  11.900  1.00  0.00    -0.205 NA
ATOM      6  C   UNL     1     -33.052   2.202  11.155  1.00  0.00    +0.153 C 
ATOM      7  C   UNL     1     -34.339   2.452  11.423  1.00  0.00    +0.044 C 
ENDROOT
BRANCH   4   8
ATOM      8  C   UNL     1     -29.935   0.615  11.683  1.00  0.00    +0.037 A 
ATOM      9  C   UNL     1     -29.093   1.054  12.712  1.00  0.00    +0.014 A 
ATOM     10  C   UNL     1     -29.627  -0.562  10.989  1.00  0.00    +0.014 A 
ATOM     11  C   UNL     1     -27.953   0.319  13.042  1.00  0.00    +0.001 A 
ATOM     12  C   UNL     1     -28.486  -1.294  11.324  1.00  0.00    +0.001 A 
ATOM     13  C   UNL     1     -27.650  -0.854  12.349  1.00  0.00    +0.000 A 
ENDBRANCH   4   8
BRANCH   7  14
ATOM     14  C   UNL     1     -35.241   3.350  10.698  1.00  0.00    -0.023 A 
ATOM     15  C   UNL     1     -36.046   2.829   9.678  1.00  0.00    +0.008 A 
ATOM     16  C   UNL     1     -35.359   4.702  11.038  1.00  0.00    +0.008 A 
ATOM     17  C   UNL     1     -36.942   3.654   8.994  1.00  0.00    +0.001 A 
ATOM     18  C   UNL     1     -36.254   5.526  10.352  1.00  0.00    +0.001 A 
ATOM     19  C   UNL     1     -37.044   5.003   9.329  1.00  0.00    +0.000 A 
ENDBRANCH   7  14
TORSDOF 2
ENDMDL
