MODEL 1
REMARK VINA RESULT:    -8.578      0.000      0.000
REMARK INTER + INTRA:         -12.187
REMARK INTER:                 -11.837
REMARK INTRA:                  -0.350
REMARK UNBOUND:                -0.350
REMARK SMILES CC(C)NC[C@@H](O)COc1cccc2ccccc12
REMARK SMILES IDX 5 1 4 2 2 4 1 5 3 6 6 7 8 8 9 9 10 10 11 11 19 12 12 13
REMARK SMILES IDX 18 14 14 15 13 16 17 17 15 18 16 19 7 20
REMARK H PARENT 4 3 7 21
ROOT
ATOM      1  C   UNL     1     -25.799   5.177   8.461  1.00  0.00    +0.116 C 
ENDROOT
BRANCH   1   2
ATOM      2  N   UNL     1     -25.752   5.112   9.931  1.00  0.00    -0.312 NA
ATOM      3  H   UNL     1     -24.908   5.583  10.254  1.00  0.00    +0.123 HD
BRANCH   2   4
ATOM      4  C   UNL     1     -25.779   3.759  10.505  1.00  0.00    +0.047 C 
ATOM      5  C   UNL     1     -26.132   3.746  11.993  1.00  0.00    +0.024 C 
ATOM      6  C   UNL     1     -24.388   3.146  10.310  1.00  0.00    +0.024 C 
ENDBRANCH   2   4
ENDBRANCH   1   2
BRANCH   1   7
ATOM      7  C   UNL     1     -26.856   6.126   7.858  1.00  0.00    +0.165 C 
BRANCH   7   8
ATOM      8  C   UNL     1     -26.182   7.362   7.243  1.00  0.00    +0.262 C 
BRANCH   8   9
ATOM      9  O   UNL     1     -26.956   8.504   7.628  1.00  0.00    -0.490 OA
BRANCH   9  10
ATOM     10  C   UNL     1     -26.877   9.628   6.840  1.00  0.00    +0.127 A 
ATOM     11  C   UNL     1     -25.701  10.068   6.223  1.00  0.00    +0.047 A 
ATOM     12  C   UNL     1     -28.082  10.361   6.678  1.00  0.00    +0.024 A 
ATOM     13  C   UNL     1     -25.705  11.224   5.443  1.00  0.00    +0.004 A 
ATOM     14  C   UNL     1     -29.303   9.974   7.273  1.00  0.00    +0.012 A 
ATOM     15  C   UNL     1     -28.073  11.534   5.884  1.00  0.00    -0.015 A 
ATOM     16  C   UNL     1     -26.881  11.950   5.275  1.00  0.00    +0.009 A 
ATOM     17  C   UNL     1     -30.472  10.718   7.093  1.00  0.00    +0.001 A 
ATOM     18  C   UNL     1     -29.256  12.272   5.712  1.00  0.00    +0.009 A 
ATOM     19  C   UNL     1     -30.448  11.866   6.313  1.00  0.00    +0.001 A 
ENDBRANCH   9  10
ENDBRANCH   8   9
ENDBRANCH   7   8
BRANCH   7  20
ATOM     20  O   UNL     1     -27.772   6.570   8.870  1.00  0.00    -0.388 OA
ATOM     21  H   UNL     1     -27.501   6.119   9.693  1.00  0.00    +0.211 HD
ENDBRANCH   7  20
ENDBRANCH   1   7
TORSDOF 7
ENDMDL
MODEL 2
REMARK VINA RESULT:    -8.224      1.658      2.290
REMARK INTER + INTRA:         -11.700
REMARK INTER:                 -11.279
REMARK INTRA:                  -0.421
REMARK UNBOUND:                -0.350
REMARK SMILES CC(C)NC[C@@H](O)COc1cccc2ccccc12
REMARK SMILES IDX 5 1 4 2 2 4 1 5 3 6 6 7 8 8 9 9 10 10 11 11 19 12 12 13
REMARK SMILES IDX 18 14 14 15 13 16 17 17 15 18 16 19 7 20
REMARK H PARENT 4 3 7 21
ROOT
ATOM      1  C   UNL     1     -25.107   6.329   6.987  1.00  0.00    +0.116 C 
ENDROOT
BRANCH   1   2
ATOM      2  N   UNL     1     -26.438   5.912   7.460  1.00  0.00    -0.312 NA
ATOM      3  H   UNL     1     -27.057   6.722   7.454  1.00  0.00    +0.123 HD
BRANCH   2   4
ATOM      4  C   UNL     1     -26.472   5.310   8.800  1.00  0.00    +0.047 C 
ATOM      5  C   UNL     1     -25.108   4.796   9.262  1.00  0.00    +0.024 C 
ATOM      6  C   UNL     1     -27.465   4.142   8.756  1.00  0.00    +0.024 C 
ENDBRANCH   2   4
ENDBRANCH   1   2
BRANCH   1   7
ATOM      7  C   UNL     1     -24.865   7.851   6.900  1.00  0.00    +0.165 C 
BRANCH   7   8
ATOM      8  C   UNL     1     -25.992   8.530   6.107  1.00  0.00    +0.262 C 
BRANCH   8   9
ATOM      9  O   UNL     1     -26.620   9.474   6.984  1.00  0.00    -0.490 OA
BRANCH   9  10
ATOM     10  C   UNL     1     -27.250  10.556   6.416  1.00  0.00    +0.127 A 
ATOM     11  C   UNL     1     -26.585  11.565   5.710  1.00  0.00    +0.047 A 
ATOM     12  C   UNL     1     -28.657  10.620   6.591  1.00  0.00    +0.024 A 
ATOM     13  C   UNL     1     -27.300  12.633   5.169  1.00  0.00    +0.004 A 
ATOM     14  C   UNL     1     -29.390   9.637   7.294  1.00  0.00    +0.012 A 
ATOM     15  C   UNL     1     -29.371  11.711   6.038  1.00  0.00    -0.015 A 
ATOM     16  C   UNL     1     -28.681  12.706   5.333  1.00  0.00    +0.009 A 
ATOM     17  C   UNL     1     -30.775   9.729   7.448  1.00  0.00    +0.001 A 
ATOM     18  C   UNL     1     -30.765  11.790   6.201  1.00  0.00    +0.009 A 
ATOM     19  C   UNL     1     -31.462  10.806   6.902  1.00  0.00    +0.001 A 
ENDBRANCH   9  10
ENDBRANCH   8   9
ENDBRANCH   7   8
BRANCH   7  20
ATOM     20  O   UNL     1     -23.621   8.127   6.240  1.00  0.00    -0.388 OA
ATOM     21  H   UNL     1     -22.963   7.533   6.648  1.00  0.00    +0.211 HD
ENDBRANCH   7  20
ENDBRANCH   1   7
TORSDOF 7
ENDMDL
MODEL 3
REMARK VINA RESULT:    -8.071      1.051      2.576
REMARK INTER + INTRA:         -11.487
REMARK INTER:                 -11.208
REMARK INTRA:                  -0.280
REMARK UNBOUND:                -0.350
REMARK SMILES CC(C)NC[C@@H](O)COc1cccc2ccccc12
REMARK SMILES IDX 5 1 4 2 2 4 1 5 3 6 6 7 8 8 9 9 10 10 11 11 19 12 12 13
REMARK SMILES IDX 18 14 14 15 13 16 17 17 15 18 16 19 7 20
REMARK H PARENT 4 3 7 21
ROOT
ATOM      1  C   UNL     1     -26.581   5.040   8.729  1.00  0.00    +0.116 C 
ENDROOT
BRANCH   1   2
ATOM      2  N   UNL     1     -25.686   4.754   9.862  1.00  0.00    -0.312 NA
ATOM      3  H   UNL     1     -24.733   4.655   9.512  1.00  0.00    +0.123 HD
BRANCH   2   4
ATOM      4  C   UNL     1     -26.020   3.557  10.646  1.00  0.00    +0.047 C 
ATOM      5  C   UNL     1     -26.141   3.835  12.145  1.00  0.00    +0.024 C 
ATOM      6  C   UNL     1     -24.910   2.525  10.411  1.00  0.00    +0.024 C 
ENDBRANCH   2   4
ENDBRANCH   1   2
BRANCH   1   7
ATOM      7  C   UNL     1     -26.408   6.419   8.060  1.00  0.00    +0.165 C 
BRANCH   7   8
ATOM      8  C   UNL     1     -27.753   7.160   7.998  1.00  0.00    +0.262 C 
BRANCH   8   9
ATOM      9  O   UNL     1     -27.670   8.102   6.922  1.00  0.00    -0.490 OA
BRANCH   9  10
ATOM     10  C   UNL     1     -28.644   9.069   6.839  1.00  0.00    +0.127 A 
ATOM     11  C   UNL     1     -29.966   8.884   7.260  1.00  0.00    +0.047 A 
ATOM     12  C   UNL     1     -28.245  10.309   6.276  1.00  0.00    +0.024 A 
ATOM     13  C   UNL     1     -30.895   9.916   7.135  1.00  0.00    +0.004 A 
ATOM     14  C   UNL     1     -26.929  10.562   5.829  1.00  0.00    +0.012 A 
ATOM     15  C   UNL     1     -29.198  11.349   6.153  1.00  0.00    -0.015 A 
ATOM     16  C   UNL     1     -30.515  11.138   6.586  1.00  0.00    +0.009 A 
ATOM     17  C   UNL     1     -26.567  11.795   5.280  1.00  0.00    +0.001 A 
ATOM     18  C   UNL     1     -28.820  12.583   5.599  1.00  0.00    +0.009 A 
ATOM     19  C   UNL     1     -27.514  12.805   5.165  1.00  0.00    +0.001 A 
ENDBRANCH   9  10
ENDBRANCH   8   9
ENDBRANCH   7   8
BRANCH   7  20
ATOM     20  O   UNL     1     -25.914   6.272   6.721  1.00  0.00    -0.388 OA
ATOM     21  H   UNL     1     -26.650   5.895   6.203  1.00  0.00    +0.211 HD
ENDBRANCH   7  20
ENDBRANCH   1   7
TORSDOF 7
ENDMDL
MODEL 4
REMARK VINA RESULT:    -8.057      1.971      3.221
REMARK INTER + INTRA:         -11.469
REMARK INTER:                 -10.629
REMARK INTRA:                  -0.840
REMARK UNBOUND:                -0.350
REMARK SMILES CC(C)NC[C@@H](O)COc1cccc2ccccc12
REMARK SMILES IDX 5 1 4 2 2 4 1 5 3 6 6 7 8 8 9 9 10 10 11 11 19 12 12 13
REMARK SMILES IDX 18 14 14 15 13 16 17 17 15 18 16 19 7 20
REMARK H PARENT 4 3 7 21
ROOT
ATOM      1  C   UNL     1     -25.026   6.346   7.136  1.00  0.00    +0.116 C 
ENDROOT
BRANCH   1   2
ATOM      2  N   UNL     1     -26.327   5.715   7.413  1.00  0.00    -0.312 NA
ATOM      3  H   UNL     1     -27.069   6.367   7.160  1.00  0.00    +0.123 HD
BRANCH   2   4
ATOM      4  C   UNL     1     -26.539   5.285   8.802  1.00  0.00    +0.047 C 
ATOM      5  C   UNL     1     -25.277   4.715   9.452  1.00  0.00    +0.024 C 
ATOM      6  C   UNL     1     -27.632   4.210   8.792  1.00  0.00    +0.024 C 
ENDBRANCH   2   4
ENDBRANCH   1   2
BRANCH   1   7
ATOM      7  C   UNL     1     -25.008   7.889   7.135  1.00  0.00    +0.165 C 
BRANCH   7   8
ATOM      8  C   UNL     1     -26.265   8.441   6.445  1.00  0.00    +0.262 C 
BRANCH   8   9
ATOM      9  O   UNL     1     -27.215   8.748   7.474  1.00  0.00    -0.490 OA
BRANCH   9  10
ATOM     10  C   UNL     1     -28.327   9.476   7.124  1.00  0.00    +0.127 A 
ATOM     11  C   UNL     1     -28.280  10.784   6.628  1.00  0.00    +0.047 A 
ATOM     12  C   UNL     1     -29.577   8.828   7.303  1.00  0.00    +0.024 A 
ATOM     13  C   UNL     1     -29.458  11.455   6.302  1.00  0.00    +0.004 A 
ATOM     14  C   UNL     1     -29.696   7.511   7.800  1.00  0.00    +0.012 A 
ATOM     15  C   UNL     1     -30.766   9.521   6.969  1.00  0.00    -0.015 A 
ATOM     16  C   UNL     1     -30.690  10.829   6.471  1.00  0.00    +0.009 A 
ATOM     17  C   UNL     1     -30.942   6.901   7.964  1.00  0.00    +0.001 A 
ATOM     18  C   UNL     1     -32.012   8.894   7.139  1.00  0.00    +0.009 A 
ATOM     19  C   UNL     1     -32.100   7.593   7.633  1.00  0.00    +0.001 A 
ENDBRANCH   9  10
ENDBRANCH   8   9
ENDBRANCH   7   8
BRANCH   7  20
ATOM     20  O   UNL     1     -23.857   8.380   6.432  1.00  0.00    -0.388 OA
ATOM     21  H   UNL     1     -23.973   8.106   5.502  1.00  0.00    +0.211 HD
ENDBRANCH   7  20
ENDBRANCH   1   7
TORSDOF 7
ENDMDL
MODEL 5
REMARK VINA RESULT:    -8.004      4.573      5.844
REMARK INTER + INTRA:         -11.395
REMARK INTER:                 -11.025
REMARK INTRA:                  -0.370
REMARK UNBOUND:                -0.350
REMARK SMILES CC(C)NC[C@@H](O)COc1cccc2ccccc12
REMARK SMILES IDX 5 1 4 2 2 4 1 5 3 6 6 7 8 8 9 9 10 10 11 11 19 12 12 13
REMARK SMILES IDX 18 14 14 15 13 16 17 17 15 18 16 19 7 20
REMARK H PARENT 4 3 7 21
ROOT
ATOM      1  C   UNL     1     -33.186   5.593   8.016  1.00  0.00    +0.116 C 
ENDROOT
BRANCH   1   2
ATOM      2  N   UNL     1     -33.942   5.526   9.278  1.00  0.00    -0.312 NA
ATOM      3  H   UNL     1     -34.083   6.473   9.627  1.00  0.00    +0.123 HD
BRANCH   2   4
ATOM      4  C   UNL     1     -33.322   4.725  10.344  1.00  0.00    +0.047 C 
ATOM      5  C   UNL     1     -33.382   3.221  10.075  1.00  0.00    +0.024 C 
ATOM      6  C   UNL     1     -34.067   5.036  11.647  1.00  0.00    +0.024 C 
ENDBRANCH   2   4
ENDBRANCH   1   2
BRANCH   1   7
ATOM      7  C   UNL     1     -33.624   6.690   7.022  1.00  0.00    +0.165 C 
BRANCH   7   8
ATOM      8  C   UNL     1     -32.396   7.370   6.397  1.00  0.00    +0.262 C 
BRANCH   8   9
ATOM      9  O   UNL     1     -31.594   7.871   7.474  1.00  0.00    -0.490 OA
BRANCH   9  10
ATOM     10  C   UNL     1     -31.232   9.197   7.442  1.00  0.00    +0.127 A 
ATOM     11  C   UNL     1     -32.065  10.244   7.854  1.00  0.00    +0.047 A 
ATOM     12  C   UNL     1     -29.932   9.476   6.945  1.00  0.00    +0.024 A 
ATOM     13  C   UNL     1     -31.622  11.564   7.783  1.00  0.00    +0.004 A 
ATOM     14  C   UNL     1     -29.042   8.469   6.512  1.00  0.00    +0.012 A 
ATOM     15  C   UNL     1     -29.495  10.822   6.878  1.00  0.00    -0.015 A 
ATOM     16  C   UNL     1     -30.348  11.850   7.299  1.00  0.00    +0.009 A 
ATOM     17  C   UNL     1     -27.768   8.777   6.028  1.00  0.00    +0.001 A 
ATOM     18  C   UNL     1     -28.211  11.117   6.389  1.00  0.00    +0.009 A 
ATOM     19  C   UNL     1     -27.354  10.101   5.966  1.00  0.00    +0.001 A 
ENDBRANCH   9  10
ENDBRANCH   8   9
ENDBRANCH   7   8
BRANCH   7  20
ATOM     20  O   UNL     1     -34.403   7.693   7.690  1.00  0.00    -0.388 OA
ATOM     21  H   UNL     1     -34.297   7.524   8.645  1.00  0.00    +0.211 HD
ENDBRANCH   7  20
ENDBRANCH   1   7
TORSDOF 7
ENDMDL
MODEL 6
REMARK VINA RESULT:    -7.886      3.757      5.748
REMARK INTER + INTRA:         -11.233
REMARK INTER:                 -10.938
REMARK INTRA:                  -0.295
REMARK UNBOUND:                -0.350
REMARK SMILES CC(C)NC[C@@H](O)COc1cccc2ccccc12
REMARK SMILES IDX 5 1 4 2 2 4 1 5 3 6 6 7 8 8 9 9 10 10 11 11 19 12 12 13
REMARK SMILES IDX 18 14 14 15 13 16 17 17 15 18 16 19 7 20
REMARK H PARENT 4 3 7 21
ROOT
ATOM      1  C   UNL     1     -32.118   7.164   8.090  1.00  0.00    +0.116 C 
ENDROOT
BRANCH   1   2
ATOM      2  N   UNL     1     -32.675   5.894   7.596  1.00  0.00    -0.312 NA
ATOM      3  H   UNL     1     -32.061   5.526   6.870  1.00  0.00    +0.123 HD
BRANCH   2   4
ATOM      4  C   UNL     1     -34.040   5.969   7.056  1.00  0.00    +0.047 C 
ATOM      5  C   UNL     1     -35.014   5.019   7.754  1.00  0.00    +0.024 C 
ATOM      6  C   UNL     1     -33.969   5.616   5.566  1.00  0.00    +0.024 C 
ENDBRANCH   2   4
ENDBRANCH   1   2
BRANCH   1   7
ATOM      7  C   UNL     1     -32.403   8.411   7.225  1.00  0.00    +0.165 C 
BRANCH   7   8
ATOM      8  C   UNL     1     -31.154   8.805   6.422  1.00  0.00    +0.262 C 
BRANCH   8   9
ATOM      9  O   UNL     1     -30.360   9.655   7.259  1.00  0.00    -0.490 OA
BRANCH   9  10
ATOM     10  C   UNL     1     -29.490  10.525   6.648  1.00  0.00    +0.127 A 
ATOM     11  C   UNL     1     -29.847  11.802   6.202  1.00  0.00    +0.047 A 
ATOM     12  C   UNL     1     -28.162  10.056   6.471  1.00  0.00    +0.024 A 
ATOM     13  C   UNL     1     -28.902  12.622   5.586  1.00  0.00    +0.004 A 
ATOM     14  C   UNL     1     -27.734   8.779   6.896  1.00  0.00    +0.012 A 
ATOM     15  C   UNL     1     -27.212  10.898   5.843  1.00  0.00    -0.015 A 
ATOM     16  C   UNL     1     -27.596  12.174   5.408  1.00  0.00    +0.009 A 
ATOM     17  C   UNL     1     -26.420   8.347   6.707  1.00  0.00    +0.001 A 
ATOM     18  C   UNL     1     -25.893  10.450   5.659  1.00  0.00    +0.009 A 
ATOM     19  C   UNL     1     -25.500   9.183   6.088  1.00  0.00    +0.001 A 
ENDBRANCH   9  10
ENDBRANCH   8   9
ENDBRANCH   7   8
BRANCH   7  20
ATOM     20  O   UNL     1     -32.776   9.523   8.051  1.00  0.00    -0.388 OA
ATOM     21  H   UNL     1     -33.383   9.164   8.726  1.00  0.00    +0.211 HD
ENDBRANCH   7  20
ENDBRANCH   1   7
TORSDOF 7
ENDMDL
MODEL 7
REMARK VINA RESULT:    -7.807      7.549      8.953
REMARK INTER + INTRA:         -11.123
REMARK INTER:                 -10.087
REMARK INTRA:                  -1.036
REMARK UNBOUND:                -0.350
REMARK SMILES CC(C)NC[C@@H](O)COc1cccc2ccccc12
REMARK SMILES IDX 5 1 4 2 2 4 1 5 3 6 6 7 8 8 9 9 10 10 11 11 19 12 12 13
REMARK SMILES IDX 18 14 14 15 13 16 17 17 15 18 16 19 7 20
REMARK H PARENT 4 3 7 21
ROOT
ATOM      1  C   UNL     1     -36.225   2.620  10.275  1.00  0.00    +0.116 C 
ENDROOT
BRANCH   1   2
ATOM      2  N   UNL     1     -35.806   3.945  10.763  1.00  0.00    -0.312 NA
ATOM      3  H   UNL     1     -35.242   3.822  11.604  1.00  0.00    +0.123 HD
BRANCH   2   4
ATOM      4  C   UNL     1     -36.897   4.881  11.067  1.00  0.00    +0.047 C 
ATOM      5  C   UNL     1     -38.275   4.218  11.067  1.00  0.00    +0.024 C 
ATOM      6  C   UNL     1     -36.867   5.986  10.004  1.00  0.00    +0.024 C 
ENDBRANCH   2   4
ENDBRANCH   1   2
BRANCH   1   7
ATOM      7  C   UNL     1     -35.866   2.292   8.811  1.00  0.00    +0.165 C 
BRANCH   7   8
ATOM      8  C   UNL     1     -34.468   2.827   8.466  1.00  0.00    +0.262 C 
BRANCH   8   9
ATOM      9  O   UNL     1     -34.625   4.188   8.045  1.00  0.00    -0.490 OA
BRANCH   9  10
ATOM     10  C   UNL     1     -33.530   5.015   8.124  1.00  0.00    +0.127 A 
ATOM     11  C   UNL     1     -32.678   5.079   9.232  1.00  0.00    +0.047 A 
ATOM     12  C   UNL     1     -33.292   5.843   6.996  1.00  0.00    +0.024 A 
ATOM     13  C   UNL     1     -31.590   5.951   9.234  1.00  0.00    +0.004 A 
ATOM     14  C   UNL     1     -34.112   5.829   5.846  1.00  0.00    +0.012 A 
ATOM     15  C   UNL     1     -32.184   6.725   7.010  1.00  0.00    -0.015 A 
ATOM     16  C   UNL     1     -31.345   6.767   8.132  1.00  0.00    +0.009 A 
ATOM     17  C   UNL     1     -33.850   6.657   4.751  1.00  0.00    +0.001 A 
ATOM     18  C   UNL     1     -31.933   7.551   5.902  1.00  0.00    +0.009 A 
ATOM     19  C   UNL     1     -32.761   7.518   4.780  1.00  0.00    +0.001 A 
ENDBRANCH   9  10
ENDBRANCH   8   9
ENDBRANCH   7   8
BRANCH   7  20
ATOM     20  O   UNL     1     -36.812   2.893   7.913  1.00  0.00    -0.388 OA
ATOM     21  H   UNL     1     -36.567   3.836   7.858  1.00  0.00    +0.211 HD
ENDBRANCH   7  20
ENDBRANCH   1   7
TORSDOF 7
ENDMDL
MODEL 8
REMARK VINA RESULT:    -7.695      3.897      5.084
REMARK INTER + INTRA:         -10.968
REMARK INTER:                 -10.607
REMARK INTRA:                  -0.361
REMARK UNBOUND:                -0.350
REMARK SMILES CC(C)NC[C@@H](O)COc1cccc2ccccc12
REMARK SMILES IDX 5 1 4 2 2 4 1 5 3 6 6 7 8 8 9 9 10 10 11 11 19 12 12 13
REMARK SMILES IDX 18 14 14 15 13 16 17 17 15 18 16 19 7 20
REMARK H PARENT 4 3 7 21
ROOT
ATOM      1  C   UNL     1     -32.790   6.688   7.052  1.00  0.00    +0.116 C 
ENDROOT
BRANCH   1   2
ATOM      2  N   UNL     1     -33.793   6.364   8.080  1.00  0.00    -0.312 NA
ATOM      3  H   UNL     1     -33.811   7.114   8.770  1.00  0.00    +0.123 HD
BRANCH   2   4
ATOM      4  C   UNL     1     -33.589   5.089   8.782  1.00  0.00    +0.047 C 
ATOM      5  C   UNL     1     -34.462   4.945  10.030  1.00  0.00    +0.024 C 
ATOM      6  C   UNL     1     -32.112   5.015   9.186  1.00  0.00    +0.024 C 
ENDBRANCH   2   4
ENDBRANCH   1   2
BRANCH   1   7
ATOM      7  C   UNL     1     -32.398   8.176   6.934  1.00  0.00    +0.165 C 
BRANCH   7   8
ATOM      8  C   UNL     1     -31.013   8.317   6.282  1.00  0.00    +0.262 C 
BRANCH   8   9
ATOM      9  O   UNL     1     -30.205   9.103   7.167  1.00  0.00    -0.490 OA
BRANCH   9  10
ATOM     10  C   UNL     1     -28.862   9.199   6.894  1.00  0.00    +0.127 A 
ATOM     11  C   UNL     1     -27.938   8.180   7.151  1.00  0.00    +0.047 A 
ATOM     12  C   UNL     1     -28.428  10.426   6.328  1.00  0.00    +0.024 A 
ATOM     13  C   UNL     1     -26.589   8.361   6.848  1.00  0.00    +0.004 A 
ATOM     14  C   UNL     1     -29.306  11.496   6.045  1.00  0.00    +0.012 A 
ATOM     15  C   UNL     1     -27.054  10.598   6.026  1.00  0.00    -0.015 A 
ATOM     16  C   UNL     1     -26.151   9.560   6.291  1.00  0.00    +0.009 A 
ATOM     17  C   UNL     1     -28.846  12.692   5.487  1.00  0.00    +0.001 A 
ATOM     18  C   UNL     1     -26.607  11.806   5.465  1.00  0.00    +0.009 A 
ATOM     19  C   UNL     1     -27.497  12.846   5.198  1.00  0.00    +0.001 A 
ENDBRANCH   9  10
ENDBRANCH   8   9
ENDBRANCH   7   8
BRANCH   7  20
ATOM     20  O   UNL     1     -32.349   8.789   8.231  1.00  0.00    -0.388 OA
ATOM     21  H   UNL     1     -32.008   9.692   8.088  1.00  0.00    +0.211 HD
ENDBRANCH   7  20
ENDBRANCH   1   7
TORSDOF 7
ENDMDL
MODEL 9
REMARK VINA RESULT:    -7.601      1.598      2.765
REMARK INTER + INTRA:         -10.840
REMARK INTER:                 -10.509
REMARK INTRA:                  -0.331
REMARK UNBOUND:                -0.350
REMARK SMILES CC(C)NC[C@@H](O)COc1cccc2ccccc12
REMARK SMILES IDX 5 1 4 2 2 4 1 5 3 6 6 7 8 8 9 9 10 10 11 11 19 12 12 13
REMARK SMILES IDX 18 14 14 15 13 16 17 17 15 18 16 19 7 20
REMARK H PARENT 4 3 7 21
ROOT
ATOM      1  C   UNL     1     -25.956   2.951  10.038  1.00  0.00    +0.116 C 
ENDROOT
BRANCH   1   2
ATOM      2  N   UNL     1     -24.504   2.955   9.796  1.00  0.00    -0.312 NA
ATOM      3  H   UNL     1     -24.334   2.751   8.812  1.00  0.00    +0.123 HD
BRANCH   2   4
ATOM      4  C   UNL     1     -23.724   2.011  10.609  1.00  0.00    +0.047 C 
ATOM      5  C   UNL     1     -22.650   1.275   9.807  1.00  0.00    +0.024 C 
ATOM      6  C   UNL     1     -24.705   0.990  11.198  1.00  0.00    +0.024 C 
ENDBRANCH   2   4
ENDBRANCH   1   2
BRANCH   1   7
ATOM      7  C   UNL     1     -26.807   3.800   9.071  1.00  0.00    +0.165 C 
BRANCH   7   8
ATOM      8  C   UNL     1     -26.171   5.185   8.869  1.00  0.00    +0.262 C 
BRANCH   8   9
ATOM      9  O   UNL     1     -26.895   5.836   7.817  1.00  0.00    -0.490 OA
BRANCH   9  10
ATOM     10  C   UNL     1     -26.408   7.033   7.349  1.00  0.00    +0.127 A 
ATOM     11  C   UNL     1     -25.064   7.259   7.033  1.00  0.00    +0.047 A 
ATOM     12  C   UNL     1     -27.359   8.077   7.202  1.00  0.00    +0.024 A 
ATOM     13  C   UNL     1     -24.651   8.508   6.568  1.00  0.00    +0.004 A 
ATOM     14  C   UNL     1     -28.730   7.917   7.503  1.00  0.00    +0.012 A 
ATOM     15  C   UNL     1     -26.927   9.340   6.730  1.00  0.00    -0.015 A 
ATOM     16  C   UNL     1     -25.575   9.539   6.418  1.00  0.00    +0.009 A 
ATOM     17  C   UNL     1     -29.640   8.965   7.347  1.00  0.00    +0.001 A 
ATOM     18  C   UNL     1     -27.854  10.385   6.578  1.00  0.00    +0.009 A 
ATOM     19  C   UNL     1     -29.201  10.199   6.885  1.00  0.00    +0.001 A 
ENDBRANCH   9  10
ENDBRANCH   8   9
ENDBRANCH   7   8
BRANCH   7  20
ATOM     20  O   UNL     1     -28.131   3.985   9.592  1.00  0.00    -0.388 OA
ATOM     21  H   UNL     1     -28.193   4.926   9.841  1.00  0.00    +0.211 HD
ENDBRANCH   7  20
ENDBRANCH   1   7
TORSDOF 7
ENDMDL
