MODEL 1
REMARK VINA RESULT:    -8.557      0.000      0.000
REMARK INTER + INTRA:         -10.212
REMARK INTER:                 -10.058
REMARK INTRA:                  -0.153
REMARK UNBOUND:                -0.153
REMARK SMILES CC(C)Nc1ncnc2c1cnn2-c1ccccc1
REMARK SMILES IDX 4 1 2 3 1 4 3 5 5 6 10 7 6 8 11 9 9 10 7 11 12 12 13 13 8 14
REMARK SMILES IDX 14 15 15 16 19 17 16 18 18 19 17 20
REMARK H PARENT 4 2
ROOT
ATOM      1  N   UNL     1     -27.164   4.520   9.040  1.00  0.00    -0.367 N 
ATOM      2  H   UNL     1     -27.793   3.965   8.472  1.00  0.00    +0.162 HD
ENDROOT
BRANCH   1   3
ATOM      3  C   UNL     1     -26.183   3.762   9.816  1.00  0.00    +0.074 C 
ATOM      4  C   UNL     1     -26.134   2.328   9.283  1.00  0.00    +0.030 C 
ATOM      5  C   UNL     1     -26.583   3.749  11.292  1.00  0.00    +0.030 C 
ENDBRANCH   1   3
BRANCH   1   6
ATOM      6  C   UNL     1     -26.730   5.675   8.393  1.00  0.00    +0.140 A 
ATOM      7  C   UNL     1     -27.609   6.720   8.072  1.00  0.00    +0.082 A 
ATOM      8  N   UNL     1     -25.428   5.833   8.060  1.00  0.00    -0.219 NA
ATOM      9  C   UNL     1     -28.975   6.998   8.233  1.00  0.00    +0.150 A 
ATOM     10  C   UNL     1     -27.097   7.837   7.427  1.00  0.00    +0.168 A 
ATOM     11  C   UNL     1     -25.044   6.962   7.441  1.00  0.00    +0.226 A 
ATOM     12  N   UNL     1     -29.334   8.176   7.725  1.00  0.00    -0.174 NA
ATOM     13  N   UNL     1     -28.171   8.707   7.229  1.00  0.00    -0.215 N 
ATOM     14  N   UNL     1     -25.804   8.006   7.083  1.00  0.00    -0.216 NA
BRANCH  13  15
ATOM     15  C   UNL     1     -28.196   9.995   6.608  1.00  0.00    +0.067 A 
ATOM     16  C   UNL     1     -29.301  10.837   6.825  1.00  0.00    +0.028 A 
ATOM     17  C   UNL     1     -27.154  10.447   5.789  1.00  0.00    +0.028 A 
ATOM     18  C   UNL     1     -29.359  12.103   6.235  1.00  0.00    +0.002 A 
ATOM     19  C   UNL     1     -27.218  11.714   5.200  1.00  0.00    +0.002 A 
ATOM     20  C   UNL     1     -28.318  12.540   5.422  1.00  0.00    +0.000 A 
ENDBRANCH  13  15
ENDBRANCH   1   6
TORSDOF 3
ENDMDL
MODEL 2
REMARK VINA RESULT:    -8.238      1.196      7.030
REMARK INTER + INTRA:          -9.836
REMARK INTER:                  -9.466
REMARK INTRA:                  -0.370
REMARK UNBOUND:                -0.153
REMARK SMILES CC(C)Nc1ncnc2c1cnn2-c1ccccc1
REMARK SMILES IDX 4 1 2 3 1 4 3 5 5 6 10 7 6 8 11 9 9 10 7 11 12 12 13 13 8 14
REMARK SMILES IDX 14 15 15 16 19 17 16 18 18 19 17 20
REMARK H PARENT 4 2
ROOT
ATOM      1  N   UNL     1     -27.562   9.480   5.656  1.00  0.00    -0.367 N 
ATOM      2  H   UNL     1     -28.129   9.399   4.820  1.00  0.00    +0.162 HD
ENDROOT
BRANCH   1   3
ATOM      3  C   UNL     1     -27.333  10.845   6.131  1.00  0.00    +0.074 C 
ATOM      4  C   UNL     1     -28.567  11.692   5.808  1.00  0.00    +0.030 C 
ATOM      5  C   UNL     1     -26.105  11.439   5.443  1.00  0.00    +0.030 C 
ENDBRANCH   1   3
BRANCH   1   6
ATOM      6  C   UNL     1     -27.852   8.501   6.602  1.00  0.00    +0.140 A 
ATOM      7  C   UNL     1     -26.887   7.579   7.037  1.00  0.00    +0.082 A 
ATOM      8  N   UNL     1     -29.086   8.413   7.150  1.00  0.00    -0.219 NA
ATOM      9  C   UNL     1     -25.534   7.313   6.780  1.00  0.00    +0.150 A 
ATOM     10  C   UNL     1     -27.257   6.635   7.984  1.00  0.00    +0.168 A 
ATOM     11  C   UNL     1     -29.330   7.459   8.064  1.00  0.00    +0.226 A 
ATOM     12  N   UNL     1     -25.061   6.279   7.474  1.00  0.00    -0.174 NA
ATOM     13  N   UNL     1     -26.125   5.857   8.230  1.00  0.00    -0.215 N 
ATOM     14  N   UNL     1     -28.485   6.531   8.533  1.00  0.00    -0.216 NA
BRANCH  13  15
ATOM     15  C   UNL     1     -25.959   4.746   9.116  1.00  0.00    +0.067 A 
ATOM     16  C   UNL     1     -24.828   4.699   9.951  1.00  0.00    +0.028 A 
ATOM     17  C   UNL     1     -26.888   3.700   9.180  1.00  0.00    +0.028 A 
ATOM     18  C   UNL     1     -24.634   3.629  10.828  1.00  0.00    +0.002 A 
ATOM     19  C   UNL     1     -26.688   2.631  10.059  1.00  0.00    +0.002 A 
ATOM     20  C   UNL     1     -25.564   2.595  10.881  1.00  0.00    +0.000 A 
ENDBRANCH  13  15
ENDBRANCH   1   6
TORSDOF 3
ENDMDL
MODEL 3
REMARK VINA RESULT:    -8.190      7.680      9.342
REMARK INTER + INTRA:          -9.780
REMARK INTER:                  -9.306
REMARK INTRA:                  -0.474
REMARK UNBOUND:                -0.153
REMARK SMILES CC(C)Nc1ncnc2c1cnn2-c1ccccc1
REMARK SMILES IDX 4 1 2 3 1 4 3 5 5 6 10 7 6 8 11 9 9 10 7 11 12 12 13 13 8 14
REMARK SMILES IDX 14 15 15 16 19 17 16 18 18 19 17 20
REMARK H PARENT 4 2
ROOT
ATOM      1  N   UNL     1     -38.154   3.006   9.835  1.00  0.00    -0.367 N 
ATOM      2  H   UNL     1     -38.291   2.430   9.013  1.00  0.00    +0.162 HD
ENDROOT
BRANCH   1   3
ATOM      3  C   UNL     1     -37.866   2.279  11.071  1.00  0.00    +0.074 C 
ATOM      4  C   UNL     1     -36.666   1.359  10.833  1.00  0.00    +0.030 C 
ATOM      5  C   UNL     1     -39.079   1.447  11.484  1.00  0.00    +0.030 C 
ENDBRANCH   1   3
BRANCH   1   6
ATOM      6  C   UNL     1     -37.418   4.158   9.570  1.00  0.00    +0.140 A 
ATOM      7  C   UNL     1     -36.384   4.177   8.622  1.00  0.00    +0.082 A 
ATOM      8  N   UNL     1     -37.688   5.315  10.218  1.00  0.00    -0.219 NA
ATOM      9  C   UNL     1     -35.790   3.267   7.734  1.00  0.00    +0.150 A 
ATOM     10  C   UNL     1     -35.698   5.366   8.417  1.00  0.00    +0.168 A 
ATOM     11  C   UNL     1     -36.961   6.409   9.935  1.00  0.00    +0.226 A 
ATOM     12  N   UNL     1     -34.795   3.799   7.026  1.00  0.00    -0.174 NA
ATOM     13  N   UNL     1     -34.737   5.105   7.440  1.00  0.00    -0.215 N 
ATOM     14  N   UNL     1     -35.952   6.524   9.060  1.00  0.00    -0.216 NA
BRANCH  13  15
ATOM     15  C   UNL     1     -33.764   5.981   6.864  1.00  0.00    +0.067 A 
ATOM     16  C   UNL     1     -32.724   6.475   7.672  1.00  0.00    +0.028 A 
ATOM     17  C   UNL     1     -33.813   6.365   5.518  1.00  0.00    +0.028 A 
ATOM     18  C   UNL     1     -31.756   7.333   7.142  1.00  0.00    +0.002 A 
ATOM     19  C   UNL     1     -32.842   7.225   4.993  1.00  0.00    +0.002 A 
ATOM     20  C   UNL     1     -31.816   7.708   5.803  1.00  0.00    +0.000 A 
ENDBRANCH  13  15
ENDBRANCH   1   6
TORSDOF 3
ENDMDL
MODEL 4
REMARK VINA RESULT:    -7.908      5.944      8.275
REMARK INTER + INTRA:          -9.449
REMARK INTER:                  -8.909
REMARK INTRA:                  -0.540
REMARK UNBOUND:                -0.153
REMARK SMILES CC(C)Nc1ncnc2c1cnn2-c1ccccc1
REMARK SMILES IDX 4 1 2 3 1 4 3 5 5 6 10 7 6 8 11 9 9 10 7 11 12 12 13 13 8 14
REMARK SMILES IDX 14 15 15 16 19 17 16 18 18 19 17 20
REMARK H PARENT 4 2
ROOT
ATOM      1  N   UNL     1     -24.262   1.028   9.255  1.00  0.00    -0.367 N 
ATOM      2  H   UNL     1     -23.804   1.407   8.435  1.00  0.00    +0.162 HD
ENDROOT
BRANCH   1   3
ATOM      3  C   UNL     1     -23.371   0.614  10.339  1.00  0.00    +0.074 C 
ATOM      4  C   UNL     1     -22.032   1.338  10.178  1.00  0.00    +0.030 C 
ATOM      5  C   UNL     1     -23.150  -0.897  10.285  1.00  0.00    +0.030 C 
ENDBRANCH   1   3
BRANCH   1   6
ATOM      6  C   UNL     1     -25.421   1.722   9.594  1.00  0.00    +0.140 A 
ATOM      7  C   UNL     1     -26.618   1.060   9.909  1.00  0.00    +0.082 A 
ATOM      8  N   UNL     1     -25.428   3.074   9.644  1.00  0.00    -0.219 NA
ATOM      9  C   UNL     1     -27.060  -0.268  10.007  1.00  0.00    +0.150 A 
ATOM     10  C   UNL     1     -27.728   1.824  10.237  1.00  0.00    +0.168 A 
ATOM     11  C   UNL     1     -26.563   3.711   9.979  1.00  0.00    +0.226 A 
ATOM     12  N   UNL     1     -28.344  -0.370  10.347  1.00  0.00    -0.174 NA
ATOM     13  N   UNL     1     -28.764   0.927  10.498  1.00  0.00    -0.215 N 
ATOM     14  N   UNL     1     -27.751   3.173  10.284  1.00  0.00    -0.216 NA
BRANCH  13  15
ATOM     15  C   UNL     1     -30.119   1.186  10.876  1.00  0.00    +0.067 A 
ATOM     16  C   UNL     1     -30.564   0.782  12.148  1.00  0.00    +0.028 A 
ATOM     17  C   UNL     1     -31.020   1.829  10.019  1.00  0.00    +0.028 A 
ATOM     18  C   UNL     1     -31.881   1.020  12.550  1.00  0.00    +0.002 A 
ATOM     19  C   UNL     1     -32.338   2.063  10.427  1.00  0.00    +0.002 A 
ATOM     20  C   UNL     1     -32.767   1.659  11.689  1.00  0.00    +0.000 A 
ENDBRANCH  13  15
ENDBRANCH   1   6
TORSDOF 3
ENDMDL
MODEL 5
REMARK VINA RESULT:    -7.802      2.105      4.048
REMARK INTER + INTRA:          -9.324
REMARK INTER:                  -9.017
REMARK INTRA:                  -0.307
REMARK UNBOUND:                -0.153
REMARK SMILES CC(C)Nc1ncnc2c1cnn2-c1ccccc1
REMARK SMILES IDX 4 1 2 3 1 4 3 5 5 6 10 7 6 8 11 9 9 10 7 11 12 12 13 13 8 14
REMARK SMILES IDX 14 15 15 16 19 17 16 18 18 19 17 20
REMARK H PARENT 4 2
ROOT
ATOM      1  N   UNL     1     -24.814   2.335  10.762  1.00  0.00    -0.367 N 
ATOM      2  H   UNL     1     -24.947   2.158  11.751  1.00  0.00    +0.162 HD
ENDROOT
BRANCH   1   3
ATOM      3  C   UNL     1     -24.216   1.239  10.001  1.00  0.00    +0.074 C 
ATOM      4  C   UNL     1     -24.624  -0.088  10.646  1.00  0.00    +0.030 C 
ATOM      5  C   UNL     1     -22.693   1.368  10.006  1.00  0.00    +0.030 C 
ENDBRANCH   1   3
BRANCH   1   6
ATOM      6  C   UNL     1     -25.884   3.019  10.188  1.00  0.00    +0.140 A 
ATOM      7  C   UNL     1     -25.711   4.241   9.520  1.00  0.00    +0.082 A 
ATOM      8  N   UNL     1     -27.138   2.514  10.246  1.00  0.00    -0.219 NA
ATOM      9  C   UNL     1     -24.644   5.095   9.205  1.00  0.00    +0.150 A 
ATOM     10  C   UNL     1     -26.828   4.858   8.976  1.00  0.00    +0.168 A 
ATOM     11  C   UNL     1     -28.145   3.198   9.678  1.00  0.00    +0.226 A 
ATOM     12  N   UNL     1     -25.023   6.183   8.535  1.00  0.00    -0.174 NA
ATOM     13  N   UNL     1     -26.379   6.039   8.382  1.00  0.00    -0.215 N 
ATOM     14  N   UNL     1     -28.085   4.371   9.032  1.00  0.00    -0.216 NA
BRANCH  13  15
ATOM     15  C   UNL     1     -27.117   7.046   7.686  1.00  0.00    +0.067 A 
ATOM     16  C   UNL     1     -26.520   7.699   6.593  1.00  0.00    +0.028 A 
ATOM     17  C   UNL     1     -28.419   7.404   8.057  1.00  0.00    +0.028 A 
ATOM     18  C   UNL     1     -27.213   8.688   5.889  1.00  0.00    +0.002 A 
ATOM     19  C   UNL     1     -29.107   8.396   7.350  1.00  0.00    +0.002 A 
ATOM     20  C   UNL     1     -28.506   9.036   6.268  1.00  0.00    +0.000 A 
ENDBRANCH  13  15
ENDBRANCH   1   6
TORSDOF 3
ENDMDL
MODEL 6
REMARK VINA RESULT:    -7.787      2.984      6.587
REMARK INTER + INTRA:          -9.306
REMARK INTER:                  -9.154
REMARK INTRA:                  -0.153
REMARK UNBOUND:                -0.153
REMARK SMILES CC(C)Nc1ncnc2c1cnn2-c1ccccc1
REMARK SMILES IDX 4 1 2 3 1 4 3 5 5 6 10 7 6 8 11 9 9 10 7 11 12 12 13 13 8 14
REMARK SMILES IDX 14 15 15 16 19 17 16 18 18 19 17 20
REMARK H PARENT 4 2
ROOT
ATOM      1  N   UNL     1     -28.087  10.745   6.862  1.00  0.00    -0.367 N 
ATOM      2  H   UNL     1     -27.733  11.317   7.619  1.00  0.00    +0.162 HD
ENDROOT
BRANCH   1   3
ATOM      3  C   UNL     1     -27.351  10.842   5.602  1.00  0.00    +0.074 C 
ATOM      4  C   UNL     1     -25.862  10.627   5.884  1.00  0.00    +0.030 C 
ATOM      5  C   UNL     1     -27.563  12.221   4.978  1.00  0.00    +0.030 C 
ENDBRANCH   1   3
BRANCH   1   6
ATOM      6  C   UNL     1     -28.488   9.480   7.286  1.00  0.00    +0.140 A 
ATOM      7  C   UNL     1     -29.825   9.059   7.203  1.00  0.00    +0.082 A 
ATOM      8  N   UNL     1     -27.589   8.600   7.784  1.00  0.00    -0.219 NA
ATOM      9  C   UNL     1     -31.042   9.593   6.757  1.00  0.00    +0.150 A 
ATOM     10  C   UNL     1     -30.142   7.783   7.646  1.00  0.00    +0.168 A 
ATOM     11  C   UNL     1     -28.011   7.386   8.179  1.00  0.00    +0.226 A 
ATOM     12  N   UNL     1     -32.069   8.758   6.910  1.00  0.00    -0.174 NA
ATOM     13  N   UNL     1     -31.516   7.628   7.456  1.00  0.00    -0.215 N 
ATOM     14  N   UNL     1     -29.258   6.898   8.152  1.00  0.00    -0.216 NA
BRANCH  13  15
ATOM     15  C   UNL     1     -32.355   6.506   7.746  1.00  0.00    +0.067 A 
ATOM     16  C   UNL     1     -33.373   6.161   6.840  1.00  0.00    +0.028 A 
ATOM     17  C   UNL     1     -32.195   5.739   8.907  1.00  0.00    +0.028 A 
ATOM     18  C   UNL     1     -34.211   5.071   7.092  1.00  0.00    +0.002 A 
ATOM     19  C   UNL     1     -33.037   4.650   9.154  1.00  0.00    +0.002 A 
ATOM     20  C   UNL     1     -34.043   4.317   8.249  1.00  0.00    +0.000 A 
ENDBRANCH  13  15
ENDBRANCH   1   6
TORSDOF 3
ENDMDL
MODEL 7
REMARK VINA RESULT:    -7.710      3.024      4.970
REMARK INTER + INTRA:          -9.215
REMARK INTER:                  -9.046
REMARK INTRA:                  -0.170
REMARK UNBOUND:                -0.153
REMARK SMILES CC(C)Nc1ncnc2c1cnn2-c1ccccc1
REMARK SMILES IDX 4 1 2 3 1 4 3 5 5 6 10 7 6 8 11 9 9 10 7 11 12 12 13 13 8 14
REMARK SMILES IDX 14 15 15 16 19 17 16 18 18 19 17 20
REMARK H PARENT 4 2
ROOT
ATOM      1  N   UNL     1     -26.957   0.614  11.787  1.00  0.00    -0.367 N 
ATOM      2  H   UNL     1     -26.615  -0.296  11.501  1.00  0.00    +0.162 HD
ENDROOT
BRANCH   1   3
ATOM      3  C   UNL     1     -27.343   0.729  13.192  1.00  0.00    +0.074 C 
ATOM      4  C   UNL     1     -27.870  -0.626  13.671  1.00  0.00    +0.030 C 
ATOM      5  C   UNL     1     -28.432   1.790  13.350  1.00  0.00    +0.030 C 
ENDBRANCH   1   3
BRANCH   1   6
ATOM      6  C   UNL     1     -26.234   1.663  11.222  1.00  0.00    +0.140 A 
ATOM      7  C   UNL     1     -26.841   2.623  10.398  1.00  0.00    +0.082 A 
ATOM      8  N   UNL     1     -24.910   1.798  11.462  1.00  0.00    -0.219 NA
ATOM      9  C   UNL     1     -28.129   2.890   9.911  1.00  0.00    +0.150 A 
ATOM     10  C   UNL     1     -26.051   3.637   9.875  1.00  0.00    +0.168 A 
ATOM     11  C   UNL     1     -24.245   2.824  10.905  1.00  0.00    +0.226 A 
ATOM     12  N   UNL     1     -28.181   3.964   9.125  1.00  0.00    -0.174 NA
ATOM     13  N   UNL     1     -26.894   4.438   9.103  1.00  0.00    -0.215 N 
ATOM     14  N   UNL     1     -24.729   3.780  10.100  1.00  0.00    -0.216 NA
BRANCH  13  15
ATOM     15  C   UNL     1     -26.591   5.611   8.344  1.00  0.00    +0.067 A 
ATOM     16  C   UNL     1     -27.571   6.611   8.209  1.00  0.00    +0.028 A 
ATOM     17  C   UNL     1     -25.347   5.798   7.728  1.00  0.00    +0.028 A 
ATOM     18  C   UNL     1     -27.309   7.771   7.475  1.00  0.00    +0.002 A 
ATOM     19  C   UNL     1     -25.091   6.961   6.993  1.00  0.00    +0.002 A 
ATOM     20  C   UNL     1     -26.070   7.945   6.866  1.00  0.00    +0.000 A 
ENDBRANCH  13  15
ENDBRANCH   1   6
TORSDOF 3
ENDMDL
MODEL 8
REMARK VINA RESULT:    -7.433      4.724      6.123
REMARK INTER + INTRA:          -8.890
REMARK INTER:                  -8.428
REMARK INTRA:                  -0.461
REMARK UNBOUND:                -0.153
REMARK SMILES CC(C)Nc1ncnc2c1cnn2-c1ccccc1
REMARK SMILES IDX 4 1 2 3 1 4 3 5 5 6 10 7 6 8 11 9 9 10 7 11 12 12 13 13 8 14
REMARK SMILES IDX 14 15 15 16 19 17 16 18 18 19 17 20
REMARK H PARENT 4 2
ROOT
ATOM      1  N   UNL     1     -34.661   3.921   7.749  1.00  0.00    -0.367 N 
ATOM      2  H   UNL     1     -34.402   3.250   7.035  1.00  0.00    +0.162 HD
ENDROOT
BRANCH   1   3
ATOM      3  C   UNL     1     -35.544   3.414   8.799  1.00  0.00    +0.074 C 
ATOM      4  C   UNL     1     -35.439   1.887   8.836  1.00  0.00    +0.030 C 
ATOM      5  C   UNL     1     -36.988   3.824   8.510  1.00  0.00    +0.030 C 
ENDBRANCH   1   3
BRANCH   1   6
ATOM      6  C   UNL     1     -33.600   4.739   8.129  1.00  0.00    +0.140 A 
ATOM      7  C   UNL     1     -33.224   5.865   7.380  1.00  0.00    +0.082 A 
ATOM      8  N   UNL     1     -32.896   4.480   9.255  1.00  0.00    -0.219 NA
ATOM      9  C   UNL     1     -33.655   6.508   6.210  1.00  0.00    +0.150 A 
ATOM     10  C   UNL     1     -32.156   6.629   7.828  1.00  0.00    +0.168 A 
ATOM     11  C   UNL     1     -31.882   5.293   9.595  1.00  0.00    +0.226 A 
ATOM     12  N   UNL     1     -32.928   7.581   5.903  1.00  0.00    -0.174 NA
ATOM     13  N   UNL     1     -31.999   7.667   6.908  1.00  0.00    -0.215 N 
ATOM     14  N   UNL     1     -31.441   6.378   8.944  1.00  0.00    -0.216 NA
BRANCH  13  15
ATOM     15  C   UNL     1     -31.045   8.733   6.893  1.00  0.00    +0.067 A 
ATOM     16  C   UNL     1     -31.496  10.057   7.045  1.00  0.00    +0.028 A 
ATOM     17  C   UNL     1     -29.674   8.501   6.733  1.00  0.00    +0.028 A 
ATOM     18  C   UNL     1     -30.592  11.122   7.035  1.00  0.00    +0.002 A 
ATOM     19  C   UNL     1     -28.774   9.573   6.722  1.00  0.00    +0.002 A 
ATOM     20  C   UNL     1     -29.232  10.880   6.874  1.00  0.00    +0.000 A 
ENDBRANCH  13  15
ENDBRANCH   1   6
TORSDOF 3
ENDMDL
MODEL 9
REMARK VINA RESULT:    -7.402      3.130      4.903
REMARK INTER + INTRA:          -8.853
REMARK INTER:                  -8.485
REMARK INTRA:                  -0.368
REMARK UNBOUND:                -0.153
REMARK SMILES CC(C)Nc1ncnc2c1cnn2-c1ccccc1
REMARK SMILES IDX 4 1 2 3 1 4 3 5 5 6 10 7 6 8 11 9 9 10 7 11 12 12 13 13 8 14
REMARK SMILES IDX 14 15 15 16 19 17 16 18 18 19 17 20
REMARK H PARENT 4 2
ROOT
ATOM      1  N   UNL     1     -32.300   5.161   8.677  1.00  0.00    -0.367 N 
ATOM      2  H   UNL     1     -31.574   5.042   9.373  1.00  0.00    +0.162 HD
ENDROOT
BRANCH   1   3
ATOM      3  C   UNL     1     -33.660   4.870   9.129  1.00  0.00    +0.074 C 
ATOM      4  C   UNL     1     -33.658   4.759  10.656  1.00  0.00    +0.030 C 
ATOM      5  C   UNL     1     -34.144   3.555   8.518  1.00  0.00    +0.030 C 
ENDBRANCH   1   3
BRANCH   1   6
ATOM      6  C   UNL     1     -32.106   6.288   7.882  1.00  0.00    +0.140 A 
ATOM      7  C   UNL     1     -30.871   6.953   7.825  1.00  0.00    +0.082 A 
ATOM      8  N   UNL     1     -33.111   6.778   7.120  1.00  0.00    -0.219 NA
ATOM      9  C   UNL     1     -29.599   6.803   8.396  1.00  0.00    +0.150 A 
ATOM     10  C   UNL     1     -30.760   8.069   7.008  1.00  0.00    +0.168 A 
ATOM     11  C   UNL     1     -32.887   7.865   6.361  1.00  0.00    +0.226 A 
ATOM     12  N   UNL     1     -28.736   7.741   8.009  1.00  0.00    -0.174 NA
ATOM     13  N   UNL     1     -29.449   8.528   7.141  1.00  0.00    -0.215 N 
ATOM     14  N   UNL     1     -31.754   8.572   6.248  1.00  0.00    -0.216 NA
BRANCH  13  15
ATOM     15  C   UNL     1     -28.809   9.647   6.522  1.00  0.00    +0.067 A 
ATOM     16  C   UNL     1     -27.562   9.462   5.896  1.00  0.00    +0.028 A 
ATOM     17  C   UNL     1     -29.384  10.924   6.517  1.00  0.00    +0.028 A 
ATOM     18  C   UNL     1     -26.909  10.534   5.281  1.00  0.00    +0.002 A 
ATOM     19  C   UNL     1     -28.724  11.993   5.901  1.00  0.00    +0.002 A 
ATOM     20  C   UNL     1     -27.490  11.798   5.284  1.00  0.00    +0.000 A 
ENDBRANCH  13  15
ENDBRANCH   1   6
TORSDOF 3
ENDMDL
