MODEL 1
REMARK VINA RESULT:    -8.814      0.000      0.000
REMARK INTER + INTRA:         -17.480
REMARK INTER:                 -15.512
REMARK INTRA:                  -1.968
REMARK UNBOUND:                -1.968
REMARK SMILES CC(=O)OC[C@H]1O[C@@H](OC(C)=O)[C@@H](NC(=O)OCc2ccccc2)[C@@H](OC(C)=O)[C@H]1OC(C)=O
REMARK SMILES IDX 6 1 7 2 8 3 13 4 25 5 30 6 5 7 4 8 2 9 3 10 1 11 31 12 32 13
REMARK SMILES IDX 34 14 33 15 9 16 10 17 12 18 11 19 26 20 27 21 29 22 28 23
REMARK SMILES IDX 14 24 15 25 16 26 17 28 18 29 19 30 20 31 24 32 21 33 23 34
REMARK SMILES IDX 22 35
REMARK H PARENT 14 27
ROOT
ATOM      1  C   UNL     1     -28.678  -0.009  13.007  1.00  0.00    +0.205 C 
ATOM      2  O   UNL     1     -27.316  -0.137  12.546  1.00  0.00    -0.330 OA
ATOM      3  C   UNL     1     -26.889   0.812  11.553  1.00  0.00    +0.337 C 
ATOM      4  C   UNL     1     -27.729   2.114  11.613  1.00  0.00    +0.199 C 
ATOM      5  C   UNL     1     -29.225   1.816  11.361  1.00  0.00    +0.249 C 
ATOM      6  C   UNL     1     -29.641   0.413  11.879  1.00  0.00    +0.252 C 
ENDROOT
BRANCH   1   7
ATOM      7  C   UNL     1     -29.073  -1.336  13.673  1.00  0.00    +0.269 C 
BRANCH   7   8
ATOM      8  O   UNL     1     -29.551  -1.123  15.020  1.00  0.00    -0.463 OA
BRANCH   8   9
ATOM      9  C   UNL     1     -28.821  -0.252  15.767  1.00  0.00    +0.302 C 
ATOM     10  O   UNL     1     -27.700  -0.466  16.207  1.00  0.00    -0.253 OA
ATOM     11  C   UNL     1     -29.595   1.008  15.993  1.00  0.00    +0.139 C 
ENDBRANCH   8   9
ENDBRANCH   7   8
ENDBRANCH   1   7
BRANCH   6  12
ATOM     12  O   UNL     1     -29.591  -0.527  10.776  1.00  0.00    -0.456 OA
BRANCH  12  13
ATOM     13  C   UNL     1     -30.767  -0.887  10.203  1.00  0.00    +0.303 C 
ATOM     14  O   UNL     1     -31.024  -0.817   9.011  1.00  0.00    -0.253 OA
ATOM     15  C   UNL     1     -31.716  -1.377  11.251  1.00  0.00    +0.139 C 
ENDBRANCH  12  13
ENDBRANCH   6  12
BRANCH   3  16
ATOM     16  O   UNL     1     -26.992   0.179  10.267  1.00  0.00    -0.433 OA
BRANCH  16  17
ATOM     17  C   UNL     1     -25.878   0.167   9.499  1.00  0.00    +0.305 C 
ATOM     18  O   UNL     1     -25.438   1.106   8.853  1.00  0.00    -0.253 OA
ATOM     19  C   UNL     1     -25.251  -1.192   9.540  1.00  0.00    +0.139 C 
ENDBRANCH  16  17
ENDBRANCH   3  16
BRANCH   5  20
ATOM     20  O   UNL     1     -29.527   1.977   9.951  1.00  0.00    -0.456 OA
BRANCH  20  21
ATOM     21  C   UNL     1     -30.377   2.997   9.653  1.00  0.00    +0.303 C 
ATOM     22  O   UNL     1     -30.038   4.104   9.262  1.00  0.00    -0.253 OA
ATOM     23  C   UNL     1     -31.793   2.584   9.910  1.00  0.00    +0.139 C 
ENDBRANCH  20  21
ENDBRANCH   5  20
BRANCH   4  24
ATOM     24  N   UNL     1     -27.241   3.195  10.765  1.00  0.00    -0.308 N 
ATOM     25  C   UNL     1     -26.137   3.920  11.100  1.00  0.00    +0.408 C 
ATOM     26  O   UNL     1     -25.580   3.867  12.187  1.00  0.00    -0.225 OA
ATOM     27  H   UNL     1     -27.474   3.205   9.781  1.00  0.00    +0.167 HD
BRANCH  25  28
ATOM     28  O   UNL     1     -25.768   4.675  10.043  1.00  0.00    -0.445 OA
BRANCH  28  29
ATOM     29  C   UNL     1     -26.604   4.563   8.885  1.00  0.00    +0.270 C 
BRANCH  29  30
ATOM     30  C   UNL     1     -26.549   5.850   8.101  1.00  0.00    -0.011 A 
ATOM     31  C   UNL     1     -25.400   6.188   7.374  1.00  0.00    +0.007 A 
ATOM     32  C   UNL     1     -27.630   6.743   8.120  1.00  0.00    +0.007 A 
ATOM     33  C   UNL     1     -25.342   7.386   6.661  1.00  0.00    +0.000 A 
ATOM     34  C   UNL     1     -27.570   7.940   7.405  1.00  0.00    +0.000 A 
ATOM     35  C   UNL     1     -26.427   8.259   6.674  1.00  0.00    +0.000 A 
ENDBRANCH  29  30
ENDBRANCH  28  29
ENDBRANCH  25  28
ENDBRANCH   4  24
TORSDOF 13
ENDMDL
MODEL 2
REMARK VINA RESULT:    -8.407      4.742      7.455
REMARK INTER + INTRA:         -16.763
REMARK INTER:                 -14.690
REMARK INTRA:                  -2.074
REMARK UNBOUND:                -1.968
REMARK SMILES CC(=O)OC[C@H]1O[C@@H](OC(C)=O)[C@@H](NC(=O)OCc2ccccc2)[C@@H](OC(C)=O)[C@H]1OC(C)=O
REMARK SMILES IDX 6 1 7 2 8 3 13 4 25 5 30 6 5 7 4 8 2 9 3 10 1 11 31 12 32 13
REMARK SMILES IDX 34 14 33 15 9 16 10 17 12 18 11 19 26 20 27 21 29 22 28 23
REMARK SMILES IDX 14 24 15 25 16 26 17 28 18 29 19 30 20 31 24 32 21 33 23 34
REMARK SMILES IDX 22 35
REMARK H PARENT 14 27
ROOT
ATOM      1  C   UNL     1     -34.646   5.469  10.045  1.00  0.00    +0.205 C 
ATOM      2  O   UNL     1     -33.318   5.260  10.570  1.00  0.00    -0.330 OA
ATOM      3  C   UNL     1     -32.233   5.429   9.642  1.00  0.00    +0.337 C 
ATOM      4  C   UNL     1     -32.629   6.361   8.468  1.00  0.00    +0.199 C 
ATOM      5  C   UNL     1     -33.829   5.781   7.684  1.00  0.00    +0.249 C 
ATOM      6  C   UNL     1     -34.788   4.968   8.594  1.00  0.00    +0.252 C 
ENDROOT
BRANCH   1   7
ATOM      7  C   UNL     1     -35.642   4.810  11.012  1.00  0.00    +0.269 C 
BRANCH   7   8
ATOM      8  O   UNL     1     -36.703   5.721  11.372  1.00  0.00    -0.463 OA
BRANCH   8   9
ATOM      9  C   UNL     1     -37.950   5.351  10.977  1.00  0.00    +0.302 C 
ATOM     10  O   UNL     1     -38.822   6.114  10.584  1.00  0.00    -0.253 OA
ATOM     11  C   UNL     1     -38.115   3.870  11.107  1.00  0.00    +0.139 C 
ENDBRANCH   8   9
ENDBRANCH   7   8
ENDBRANCH   1   7
BRANCH   6  12
ATOM     12  O   UNL     1     -34.447   3.562   8.496  1.00  0.00    -0.456 OA
BRANCH  12  13
ATOM     13  C   UNL     1     -35.465   2.666   8.488  1.00  0.00    +0.303 C 
ATOM     14  O   UNL     1     -35.446   1.566   9.018  1.00  0.00    -0.253 OA
ATOM     15  C   UNL     1     -36.625   3.220   7.719  1.00  0.00    +0.139 C 
ENDBRANCH  12  13
ENDBRANCH   6  12
BRANCH   3  16
ATOM     16  O   UNL     1     -31.851   4.126   9.171  1.00  0.00    -0.433 OA
BRANCH  16  17
ATOM     17  C   UNL     1     -30.561   3.763   9.354  1.00  0.00    +0.305 C 
ATOM     18  O   UNL     1     -29.578   4.443   9.100  1.00  0.00    -0.253 OA
ATOM     19  C   UNL     1     -30.500   2.374   9.911  1.00  0.00    +0.139 C 
ENDBRANCH  16  17
ENDBRANCH   3  16
BRANCH   5  20
ATOM     20  O   UNL     1     -33.349   4.988   6.568  1.00  0.00    -0.456 OA
BRANCH  20  21
ATOM     21  C   UNL     1     -34.037   5.146   5.405  1.00  0.00    +0.303 C 
ATOM     22  O   UNL     1     -34.417   4.237   4.684  1.00  0.00    -0.253 OA
ATOM     23  C   UNL     1     -34.229   6.601   5.111  1.00  0.00    +0.139 C 
ENDBRANCH  20  21
ENDBRANCH   5  20
BRANCH   4  24
ATOM     24  N   UNL     1     -31.530   6.730   7.584  1.00  0.00    -0.308 N 
ATOM     25  C   UNL     1     -31.397   7.998   7.103  1.00  0.00    +0.408 C 
ATOM     26  O   UNL     1     -32.250   8.867   7.206  1.00  0.00    -0.225 OA
ATOM     27  H   UNL     1     -30.679   6.185   7.588  1.00  0.00    +0.167 HD
BRANCH  25  28
ATOM     28  O   UNL     1     -30.185   8.125   6.523  1.00  0.00    -0.445 OA
BRANCH  28  29
ATOM     29  C   UNL     1     -29.186   8.770   7.321  1.00  0.00    +0.270 C 
BRANCH  29  30
ATOM     30  C   UNL     1     -28.740  10.038   6.637  1.00  0.00    -0.011 A 
ATOM     31  C   UNL     1     -29.599  11.142   6.563  1.00  0.00    +0.007 A 
ATOM     32  C   UNL     1     -27.477  10.116   6.034  1.00  0.00    +0.007 A 
ATOM     33  C   UNL     1     -29.194  12.311   5.917  1.00  0.00    +0.000 A 
ATOM     34  C   UNL     1     -27.073  11.287   5.388  1.00  0.00    +0.000 A 
ATOM     35  C   UNL     1     -27.931  12.384   5.333  1.00  0.00    +0.000 A 
ENDBRANCH  29  30
ENDBRANCH  28  29
ENDBRANCH  25  28
ENDBRANCH   4  24
TORSDOF 13
ENDMDL
MODEL 3
REMARK VINA RESULT:    -7.834      2.547      6.713
REMARK INTER + INTRA:         -15.756
REMARK INTER:                 -13.962
REMARK INTRA:                  -1.794
REMARK UNBOUND:                -1.968
REMARK SMILES CC(=O)OC[C@H]1O[C@@H](OC(C)=O)[C@@H](NC(=O)OCc2ccccc2)[C@@H](OC(C)=O)[C@H]1OC(C)=O
REMARK SMILES IDX 6 1 7 2 8 3 13 4 25 5 30 6 5 7 4 8 2 9 3 10 1 11 31 12 32 13
REMARK SMILES IDX 34 14 33 15 9 16 10 17 12 18 11 19 26 20 27 21 29 22 28 23
REMARK SMILES IDX 14 24 15 25 16 26 17 28 18 29 19 30 20 31 24 32 21 33 23 34
REMARK SMILES IDX 22 35
REMARK H PARENT 14 27
ROOT
ATOM      1  C   UNL     1     -25.247  -0.612   9.882  1.00  0.00    +0.205 C 
ATOM      2  O   UNL     1     -26.030  -1.063  11.007  1.00  0.00    -0.330 OA
ATOM      3  C   UNL     1     -27.180  -0.266  11.344  1.00  0.00    +0.337 C 
ATOM      4  C   UNL     1     -27.693   0.535  10.120  1.00  0.00    +0.199 C 
ATOM      5  C   UNL     1     -26.601   1.491   9.589  1.00  0.00    +0.249 C 
ATOM      6  C   UNL     1     -25.171   0.926   9.800  1.00  0.00    +0.252 C 
ENDROOT
BRANCH   1   7
ATOM      7  C   UNL     1     -23.868  -1.282   9.971  1.00  0.00    +0.269 C 
BRANCH   7   8
ATOM      8  O   UNL     1     -23.957  -2.700   9.712  1.00  0.00    -0.463 OA
BRANCH   8   9
ATOM      9  C   UNL     1     -22.842  -3.419  10.007  1.00  0.00    +0.302 C 
ATOM     10  O   UNL     1     -22.744  -4.636   9.925  1.00  0.00    -0.253 OA
ATOM     11  C   UNL     1     -21.747  -2.509  10.466  1.00  0.00    +0.139 C 
ENDBRANCH   8   9
ENDBRANCH   7   8
ENDBRANCH   1   7
BRANCH   6  12
ATOM     12  O   UNL     1     -24.623   1.483  11.022  1.00  0.00    -0.456 OA
BRANCH  12  13
ATOM     13  C   UNL     1     -23.597   2.363  10.908  1.00  0.00    +0.303 C 
ATOM     14  O   UNL     1     -23.696   3.579  10.982  1.00  0.00    -0.253 OA
ATOM     15  C   UNL     1     -22.317   1.626  10.665  1.00  0.00    +0.139 C 
ENDBRANCH  12  13
ENDBRANCH   6  12
BRANCH   3  16
ATOM     16  O   UNL     1     -26.808   0.606  12.424  1.00  0.00    -0.433 OA
BRANCH  16  17
ATOM     17  C   UNL     1     -27.776   0.922  13.315  1.00  0.00    +0.305 C 
ATOM     18  O   UNL     1     -28.428   1.955  13.335  1.00  0.00    -0.253 OA
ATOM     19  C   UNL     1     -27.931  -0.189  14.308  1.00  0.00    +0.139 C 
ENDBRANCH  16  17
ENDBRANCH   3  16
BRANCH   5  20
ATOM     20  O   UNL     1     -26.755   2.799  10.199  1.00  0.00    -0.456 OA
BRANCH  20  21
ATOM     21  C   UNL     1     -27.207   3.776   9.368  1.00  0.00    +0.303 C 
ATOM     22  O   UNL     1     -28.383   4.042   9.170  1.00  0.00    -0.253 OA
ATOM     23  C   UNL     1     -26.058   4.460   8.697  1.00  0.00    +0.139 C 
ENDBRANCH  20  21
ENDBRANCH   5  20
BRANCH   4  24
ATOM     24  N   UNL     1     -28.962   1.222  10.329  1.00  0.00    -0.308 N 
ATOM     25  C   UNL     1     -30.150   0.557  10.278  1.00  0.00    +0.408 C 
ATOM     26  O   UNL     1     -30.280  -0.593   9.883  1.00  0.00    -0.225 OA
ATOM     27  H   UNL     1     -28.982   2.090  10.846  1.00  0.00    +0.167 HD
BRANCH  25  28
ATOM     28  O   UNL     1     -31.127   1.364  10.742  1.00  0.00    -0.445 OA
BRANCH  28  29
ATOM     29  C   UNL     1     -31.533   2.412   9.855  1.00  0.00    +0.270 C 
BRANCH  29  30
ATOM     30  C   UNL     1     -32.961   2.796  10.151  1.00  0.00    -0.011 A 
ATOM     31  C   UNL     1     -33.947   1.809  10.275  1.00  0.00    +0.007 A 
ATOM     32  C   UNL     1     -33.328   4.144  10.267  1.00  0.00    +0.007 A 
ATOM     33  C   UNL     1     -35.273   2.163  10.534  1.00  0.00    +0.000 A 
ATOM     34  C   UNL     1     -34.653   4.495  10.526  1.00  0.00    +0.000 A 
ATOM     35  C   UNL     1     -35.624   3.505  10.662  1.00  0.00    +0.000 A 
ENDBRANCH  29  30
ENDBRANCH  28  29
ENDBRANCH  25  28
ENDBRANCH   4  24
TORSDOF 13
ENDMDL
MODEL 4
REMARK VINA RESULT:    -7.626      4.497      7.233
REMARK INTER + INTRA:         -15.389
REMARK INTER:                 -13.801
REMARK INTRA:                  -1.587
REMARK UNBOUND:                -1.968
REMARK SMILES CC(=O)OC[C@H]1O[C@@H](OC(C)=O)[C@@H](NC(=O)OCc2ccccc2)[C@@H](OC(C)=O)[C@H]1OC(C)=O
REMARK SMILES IDX 6 1 7 2 8 3 13 4 25 5 30 6 5 7 4 8 2 9 3 10 1 11 31 12 32 13
REMARK SMILES IDX 34 14 33 15 9 16 10 17 12 18 11 19 26 20 27 21 29 22 28 23
REMARK SMILES IDX 14 24 15 25 16 26 17 28 18 29 19 30 20 31 24 32 21 33 23 34
REMARK SMILES IDX 22 35
REMARK H PARENT 14 27
ROOT
ATOM      1  C   UNL     1     -34.672   5.448   9.950  1.00  0.00    +0.205 C 
ATOM      2  O   UNL     1     -33.442   4.984  10.546  1.00  0.00    -0.330 OA
ATOM      3  C   UNL     1     -32.250   5.152   9.758  1.00  0.00    +0.337 C 
ATOM      4  C   UNL     1     -32.406   6.303   8.731  1.00  0.00    +0.199 C 
ATOM      5  C   UNL     1     -33.573   6.019   7.758  1.00  0.00    +0.249 C 
ATOM      6  C   UNL     1     -34.713   5.207   8.428  1.00  0.00    +0.252 C 
ENDROOT
BRANCH   1   7
ATOM      7  C   UNL     1     -35.836   4.782  10.700  1.00  0.00    +0.269 C 
BRANCH   7   8
ATOM      8  O   UNL     1     -36.799   5.761  11.146  1.00  0.00    -0.463 OA
BRANCH   8   9
ATOM      9  C   UNL     1     -38.043   5.643  10.611  1.00  0.00    +0.302 C 
ATOM     10  O   UNL     1     -38.711   6.566  10.164  1.00  0.00    -0.253 OA
ATOM     11  C   UNL     1     -38.494   4.217  10.662  1.00  0.00    +0.139 C 
ENDBRANCH   8   9
ENDBRANCH   7   8
ENDBRANCH   1   7
BRANCH   6  12
ATOM     12  O   UNL     1     -34.530   3.802   8.121  1.00  0.00    -0.456 OA
BRANCH  12  13
ATOM     13  C   UNL     1     -35.632   3.011   8.109  1.00  0.00    +0.303 C 
ATOM     14  O   UNL     1     -36.704   3.296   7.597  1.00  0.00    -0.253 OA
ATOM     15  C   UNL     1     -35.347   1.729   8.830  1.00  0.00    +0.139 C 
ENDBRANCH  12  13
ENDBRANCH   6  12
BRANCH   3  16
ATOM     16  O   UNL     1     -31.975   3.901   9.107  1.00  0.00    -0.433 OA
BRANCH  16  17
ATOM     17  C   UNL     1     -31.649   2.856   9.902  1.00  0.00    +0.305 C 
ATOM     18  O   UNL     1     -32.425   2.188  10.569  1.00  0.00    -0.253 OA
ATOM     19  C   UNL     1     -30.169   2.632   9.862  1.00  0.00    +0.139 C 
ENDBRANCH  16  17
ENDBRANCH   3  16
BRANCH   5  20
ATOM     20  O   UNL     1     -33.071   5.356   6.569  1.00  0.00    -0.456 OA
BRANCH  20  21
ATOM     21  C   UNL     1     -33.641   5.753   5.399  1.00  0.00    +0.303 C 
ATOM     22  O   UNL     1     -34.415   5.084   4.731  1.00  0.00    -0.253 OA
ATOM     23  C   UNL     1     -33.154   7.117   5.022  1.00  0.00    +0.139 C 
ENDBRANCH  20  21
ENDBRANCH   5  20
BRANCH   4  24
ATOM     24  N   UNL     1     -31.183   6.658   8.022  1.00  0.00    -0.308 N 
ATOM     25  C   UNL     1     -30.915   7.945   7.662  1.00  0.00    +0.408 C 
ATOM     26  O   UNL     1     -31.722   8.860   7.726  1.00  0.00    -0.225 OA
ATOM     27  H   UNL     1     -30.372   6.058   8.090  1.00  0.00    +0.167 HD
BRANCH  25  28
ATOM     28  O   UNL     1     -29.633   8.030   7.250  1.00  0.00    -0.445 OA
BRANCH  28  29
ATOM     29  C   UNL     1     -28.685   7.293   8.031  1.00  0.00    +0.270 C 
BRANCH  29  30
ATOM     30  C   UNL     1     -27.294   7.558   7.512  1.00  0.00    -0.011 A 
ATOM     31  C   UNL     1     -26.985   8.785   6.909  1.00  0.00    +0.007 A 
ATOM     32  C   UNL     1     -26.303   6.569   7.590  1.00  0.00    +0.007 A 
ATOM     33  C   UNL     1     -25.703   9.026   6.414  1.00  0.00    +0.000 A 
ATOM     34  C   UNL     1     -25.021   6.813   7.094  1.00  0.00    +0.000 A 
ATOM     35  C   UNL     1     -24.721   8.042   6.510  1.00  0.00    +0.000 A 
ENDBRANCH  29  30
ENDBRANCH  28  29
ENDBRANCH  25  28
ENDBRANCH   4  24
TORSDOF 13
ENDMDL
MODEL 5
REMARK VINA RESULT:    -7.612      4.656      9.204
REMARK INTER + INTRA:         -15.365
REMARK INTER:                 -13.914
REMARK INTRA:                  -1.450
REMARK UNBOUND:                -1.968
REMARK SMILES CC(=O)OC[C@H]1O[C@@H](OC(C)=O)[C@@H](NC(=O)OCc2ccccc2)[C@@H](OC(C)=O)[C@H]1OC(C)=O
REMARK SMILES IDX 6 1 7 2 8 3 13 4 25 5 30 6 5 7 4 8 2 9 3 10 1 11 31 12 32 13
REMARK SMILES IDX 34 14 33 15 9 16 10 17 12 18 11 19 26 20 27 21 29 22 28 23
REMARK SMILES IDX 14 24 15 25 16 26 17 28 18 29 19 30 20 31 24 32 21 33 23 34
REMARK SMILES IDX 22 35
REMARK H PARENT 14 27
ROOT
ATOM      1  C   UNL     1     -34.969   3.558   7.871  1.00  0.00    +0.205 C 
ATOM      2  O   UNL     1     -33.711   3.775   8.543  1.00  0.00    -0.330 OA
ATOM      3  C   UNL     1     -33.431   2.919   9.665  1.00  0.00    +0.337 C 
ATOM      4  C   UNL     1     -34.210   1.582   9.566  1.00  0.00    +0.199 C 
ATOM      5  C   UNL     1     -35.735   1.833   9.538  1.00  0.00    +0.249 C 
ATOM      6  C   UNL     1     -36.098   3.176   8.850  1.00  0.00    +0.252 C 
ENDROOT
BRANCH   1   7
ATOM      7  C   UNL     1     -35.284   4.815   7.047  1.00  0.00    +0.269 C 
BRANCH   7   8
ATOM      8  O   UNL     1     -34.101   5.620   6.849  1.00  0.00    -0.463 OA
BRANCH   8   9
ATOM      9  C   UNL     1     -33.681   5.734   5.561  1.00  0.00    +0.302 C 
ATOM     10  O   UNL     1     -34.044   5.022   4.634  1.00  0.00    -0.253 OA
ATOM     11  C   UNL     1     -32.690   6.848   5.437  1.00  0.00    +0.139 C 
ENDBRANCH   8   9
ENDBRANCH   7   8
ENDBRANCH   1   7
BRANCH   6  12
ATOM     12  O   UNL     1     -36.266   4.194   9.869  1.00  0.00    -0.456 OA
BRANCH  12  13
ATOM     13  C   UNL     1     -37.411   4.920   9.851  1.00  0.00    +0.303 C 
ATOM     14  O   UNL     1     -38.330   4.775   9.059  1.00  0.00    -0.253 OA
ATOM     15  C   UNL     1     -37.384   5.942  10.945  1.00  0.00    +0.139 C 
ENDBRANCH  12  13
ENDBRANCH   6  12
BRANCH   3  16
ATOM     16  O   UNL     1     -33.772   3.638  10.862  1.00  0.00    -0.433 OA
BRANCH  16  17
ATOM     17  C   UNL     1     -33.337   4.916  10.953  1.00  0.00    +0.305 C 
ATOM     18  O   UNL     1     -32.568   5.472  10.183  1.00  0.00    -0.253 OA
ATOM     19  C   UNL     1     -33.930   5.567  12.164  1.00  0.00    +0.139 C 
ENDBRANCH  16  17
ENDBRANCH   3  16
BRANCH   5  20
ATOM     20  O   UNL     1     -36.269   1.761  10.885  1.00  0.00    -0.456 OA
BRANCH  20  21
ATOM     21  C   UNL     1     -37.423   1.051  11.014  1.00  0.00    +0.303 C 
ATOM     22  O   UNL     1     -37.536  -0.150  10.821  1.00  0.00    -0.253 OA
ATOM     23  C   UNL     1     -38.551   1.960  11.391  1.00  0.00    +0.139 C 
ENDBRANCH  20  21
ENDBRANCH   5  20
BRANCH   4  24
ATOM     24  N   UNL     1     -33.842   0.586  10.565  1.00  0.00    -0.308 N 
ATOM     25  C   UNL     1     -32.625  -0.026  10.547  1.00  0.00    +0.408 C 
ATOM     26  O   UNL     1     -31.827   0.054   9.625  1.00  0.00    -0.225 OA
ATOM     27  H   UNL     1     -34.307   0.581  11.463  1.00  0.00    +0.167 HD
BRANCH  25  28
ATOM     28  O   UNL     1     -32.455  -0.704  11.702  1.00  0.00    -0.445 OA
BRANCH  28  29
ATOM     29  C   UNL     1     -31.134  -1.208  11.931  1.00  0.00    +0.270 C 
BRANCH  29  30
ATOM     30  C   UNL     1     -30.389  -0.264  12.840  1.00  0.00    -0.011 A 
ATOM     31  C   UNL     1     -29.390   0.574  12.326  1.00  0.00    +0.007 A 
ATOM     32  C   UNL     1     -30.656  -0.238  14.216  1.00  0.00    +0.007 A 
ATOM     33  C   UNL     1     -28.688   1.437  13.168  1.00  0.00    +0.000 A 
ATOM     34  C   UNL     1     -29.953   0.626  15.057  1.00  0.00    +0.000 A 
ATOM     35  C   UNL     1     -28.972   1.465  14.532  1.00  0.00    +0.000 A 
ENDBRANCH  29  30
ENDBRANCH  28  29
ENDBRANCH  25  28
ENDBRANCH   4  24
TORSDOF 13
ENDMDL
MODEL 6
REMARK VINA RESULT:    -7.217      2.531      8.387
REMARK INTER + INTRA:         -14.670
REMARK INTER:                 -12.569
REMARK INTRA:                  -2.101
REMARK UNBOUND:                -1.968
REMARK SMILES CC(=O)OC[C@H]1O[C@@H](OC(C)=O)[C@@H](NC(=O)OCc2ccccc2)[C@@H](OC(C)=O)[C@H]1OC(C)=O
REMARK SMILES IDX 6 1 7 2 8 3 13 4 25 5 30 6 5 7 4 8 2 9 3 10 1 11 31 12 32 13
REMARK SMILES IDX 34 14 33 15 9 16 10 17 12 18 11 19 26 20 27 21 29 22 28 23
REMARK SMILES IDX 14 24 15 25 16 26 17 28 18 29 19 30 20 31 24 32 21 33 23 34
REMARK SMILES IDX 22 35
REMARK H PARENT 14 27
ROOT
ATOM      1  C   UNL     1     -26.791   1.637  12.551  1.00  0.00    +0.205 C 
ATOM      2  O   UNL     1     -28.147   2.130  12.577  1.00  0.00    -0.330 OA
ATOM      3  C   UNL     1     -29.179   1.147  12.774  1.00  0.00    +0.337 C 
ATOM      4  C   UNL     1     -28.635  -0.107  13.505  1.00  0.00    +0.199 C 
ATOM      5  C   UNL     1     -27.504  -0.774  12.689  1.00  0.00    +0.249 C 
ATOM      6  C   UNL     1     -26.682   0.257  11.871  1.00  0.00    +0.252 C 
ENDROOT
BRANCH   1   7
ATOM      7  C   UNL     1     -25.915   2.709  11.886  1.00  0.00    +0.269 C 
BRANCH   7   8
ATOM      8  O   UNL     1     -26.722   3.716  11.238  1.00  0.00    -0.463 OA
BRANCH   8   9
ATOM      9  C   UNL     1     -26.117   4.384  10.220  1.00  0.00    +0.302 C 
ATOM     10  O   UNL     1     -26.697   5.000   9.336  1.00  0.00    -0.253 OA
ATOM     11  C   UNL     1     -24.631   4.245  10.322  1.00  0.00    +0.139 C 
ENDBRANCH   8   9
ENDBRANCH   7   8
ENDBRANCH   1   7
BRANCH   6  12
ATOM     12  O   UNL     1     -27.203   0.304  10.519  1.00  0.00    -0.456 OA
BRANCH  12  13
ATOM     13  C   UNL     1     -26.309   0.315   9.499  1.00  0.00    +0.303 C 
ATOM     14  O   UNL     1     -26.115   1.250   8.737  1.00  0.00    -0.253 OA
ATOM     15  C   UNL     1     -25.593  -0.998   9.435  1.00  0.00    +0.139 C 
ENDBRANCH  12  13
ENDBRANCH   6  12
BRANCH   3  16
ATOM     16  O   UNL     1     -29.717   0.811  11.485  1.00  0.00    -0.433 OA
BRANCH  16  17
ATOM     17  C   UNL     1     -30.884   1.402  11.136  1.00  0.00    +0.305 C 
ATOM     18  O   UNL     1     -31.061   2.137  10.177  1.00  0.00    -0.253 OA
ATOM     19  C   UNL     1     -31.951   1.033  12.121  1.00  0.00    +0.139 C 
ENDBRANCH  16  17
ENDBRANCH   3  16
BRANCH   5  20
ATOM     20  O   UNL     1     -28.058  -1.812  11.840  1.00  0.00    -0.456 OA
BRANCH  20  21
ATOM     21  C   UNL     1     -27.751  -3.086  12.206  1.00  0.00    +0.303 C 
ATOM     22  O   UNL     1     -28.328  -3.728  13.071  1.00  0.00    -0.253 OA
ATOM     23  C   UNL     1     -26.575  -3.581  11.424  1.00  0.00    +0.139 C 
ENDBRANCH  20  21
ENDBRANCH   5  20
BRANCH   4  24
ATOM     24  N   UNL     1     -29.654  -1.069  13.907  1.00  0.00    -0.308 N 
ATOM     25  C   UNL     1     -29.871  -1.372  15.218  1.00  0.00    +0.408 C 
ATOM     26  O   UNL     1     -29.140  -1.028  16.135  1.00  0.00    -0.225 OA
ATOM     27  H   UNL     1     -30.433  -1.261  13.292  1.00  0.00    +0.167 HD
BRANCH  25  28
ATOM     28  O   UNL     1     -31.011  -2.087  15.323  1.00  0.00    -0.445 OA
BRANCH  28  29
ATOM     29  C   UNL     1     -30.869  -3.502  15.150  1.00  0.00    +0.270 C 
BRANCH  29  30
ATOM     30  C   UNL     1     -31.866  -3.985  14.128  1.00  0.00    -0.011 A 
ATOM     31  C   UNL     1     -31.890  -3.429  12.843  1.00  0.00    +0.007 A 
ATOM     32  C   UNL     1     -32.808  -4.969  14.461  1.00  0.00    +0.007 A 
ATOM     33  C   UNL     1     -32.823  -3.864  11.901  1.00  0.00    +0.000 A 
ATOM     34  C   UNL     1     -33.741  -5.403  13.518  1.00  0.00    +0.000 A 
ATOM     35  C   UNL     1     -33.746  -4.852  12.237  1.00  0.00    +0.000 A 
ENDBRANCH  29  30
ENDBRANCH  28  29
ENDBRANCH  25  28
ENDBRANCH   4  24
TORSDOF 13
ENDMDL
MODEL 7
REMARK VINA RESULT:    -6.380      2.154      7.969
REMARK INTER + INTRA:         -13.196
REMARK INTER:                 -12.213
REMARK INTRA:                  -0.983
REMARK UNBOUND:                -1.968
REMARK SMILES CC(=O)OC[C@H]1O[C@@H](OC(C)=O)[C@@H](NC(=O)OCc2ccccc2)[C@@H](OC(C)=O)[C@H]1OC(C)=O
REMARK SMILES IDX 6 1 7 2 8 3 13 4 25 5 30 6 5 7 4 8 2 9 3 10 1 11 31 12 32 13
REMARK SMILES IDX 34 14 33 15 9 16 10 17 12 18 11 19 26 20 27 21 29 22 28 23
REMARK SMILES IDX 14 24 15 25 16 26 17 28 18 29 19 30 20 31 24 32 21 33 23 34
REMARK SMILES IDX 22 35
REMARK H PARENT 14 27
ROOT
ATOM      1  C   UNL     1     -26.582   3.412  10.196  1.00  0.00    +0.205 C 
ATOM      2  O   UNL     1     -27.369   2.595   9.303  1.00  0.00    -0.330 OA
ATOM      3  C   UNL     1     -28.279   1.669   9.923  1.00  0.00    +0.337 C 
ATOM      4  C   UNL     1     -28.676   2.131  11.348  1.00  0.00    +0.199 C 
ATOM      5  C   UNL     1     -27.431   2.244  12.258  1.00  0.00    +0.249 C 
ATOM      6  C   UNL     1     -26.159   2.649  11.468  1.00  0.00    +0.252 C 
ENDROOT
BRANCH   1   7
ATOM      7  C   UNL     1     -25.391   3.964   9.398  1.00  0.00    +0.269 C 
BRANCH   7   8
ATOM      8  O   UNL     1     -25.525   5.385   9.175  1.00  0.00    -0.463 OA
BRANCH   8   9
ATOM      9  C   UNL     1     -25.708   5.758   7.880  1.00  0.00    +0.302 C 
ATOM     10  O   UNL     1     -25.000   5.421   6.941  1.00  0.00    -0.253 OA
ATOM     11  C   UNL     1     -26.897   6.660   7.765  1.00  0.00    +0.139 C 
ENDBRANCH   8   9
ENDBRANCH   7   8
ENDBRANCH   1   7
BRANCH   6  12
ATOM     12  O   UNL     1     -25.416   1.451  11.130  1.00  0.00    -0.456 OA
BRANCH  12  13
ATOM     13  C   UNL     1     -24.089   1.434  11.410  1.00  0.00    +0.303 C 
ATOM     14  O   UNL     1     -23.406   0.430  11.544  1.00  0.00    -0.253 OA
ATOM     15  C   UNL     1     -23.578   2.835  11.543  1.00  0.00    +0.139 C 
ENDBRANCH  12  13
ENDBRANCH   6  12
BRANCH   3  16
ATOM     16  O   UNL     1     -27.644   0.380   9.947  1.00  0.00    -0.433 OA
BRANCH  16  17
ATOM     17  C   UNL     1     -28.434  -0.687  10.208  1.00  0.00    +0.305 C 
ATOM     18  O   UNL     1     -29.560  -0.874   9.771  1.00  0.00    -0.253 OA
ATOM     19  C   UNL     1     -27.728  -1.623  11.140  1.00  0.00    +0.139 C 
ENDBRANCH  16  17
ENDBRANCH   3  16
BRANCH   5  20
ATOM     20  O   UNL     1     -27.238   1.001  12.982  1.00  0.00    -0.456 OA
BRANCH  20  21
ATOM     21  C   UNL     1     -27.910   0.906  14.161  1.00  0.00    +0.303 C 
ATOM     22  O   UNL     1     -28.553   1.807  14.679  1.00  0.00    -0.253 OA
ATOM     23  C   UNL     1     -27.720  -0.453  14.758  1.00  0.00    +0.139 C 
ENDBRANCH  20  21
ENDBRANCH   5  20
BRANCH   4  24
ATOM     24  N   UNL     1     -29.735   1.346  11.972  1.00  0.00    -0.308 N 
ATOM     25  C   UNL     1     -31.018   1.392  11.516  1.00  0.00    +0.408 C 
ATOM     26  O   UNL     1     -31.431   2.202  10.699  1.00  0.00    -0.225 OA
ATOM     27  H   UNL     1     -29.500   0.516  12.498  1.00  0.00    +0.167 HD
BRANCH  25  28
ATOM     28  O   UNL     1     -31.729   0.404  12.100  1.00  0.00    -0.445 OA
BRANCH  28  29
ATOM     29  C   UNL     1     -31.033  -0.344  13.103  1.00  0.00    +0.270 C 
BRANCH  29  30
ATOM     30  C   UNL     1     -31.331  -1.812  12.931  1.00  0.00    -0.011 A 
ATOM     31  C   UNL     1     -32.231  -2.241  11.947  1.00  0.00    +0.007 A 
ATOM     32  C   UNL     1     -30.743  -2.763  13.777  1.00  0.00    +0.007 A 
ATOM     33  C   UNL     1     -32.521  -3.598  11.797  1.00  0.00    +0.000 A 
ATOM     34  C   UNL     1     -31.034  -4.120  13.625  1.00  0.00    +0.000 A 
ATOM     35  C   UNL     1     -31.920  -4.536  12.633  1.00  0.00    +0.000 A 
ENDBRANCH  29  30
ENDBRANCH  28  29
ENDBRANCH  25  28
ENDBRANCH   4  24
TORSDOF 13
ENDMDL
MODEL 8
REMARK VINA RESULT:    -5.985      2.496      7.954
REMARK INTER + INTRA:         -12.501
REMARK INTER:                 -11.056
REMARK INTRA:                  -1.444
REMARK UNBOUND:                -1.968
REMARK SMILES CC(=O)OC[C@H]1O[C@@H](OC(C)=O)[C@@H](NC(=O)OCc2ccccc2)[C@@H](OC(C)=O)[C@H]1OC(C)=O
REMARK SMILES IDX 6 1 7 2 8 3 13 4 25 5 30 6 5 7 4 8 2 9 3 10 1 11 31 12 32 13
REMARK SMILES IDX 34 14 33 15 9 16 10 17 12 18 11 19 26 20 27 21 29 22 28 23
REMARK SMILES IDX 14 24 15 25 16 26 17 28 18 29 19 30 20 31 24 32 21 33 23 34
REMARK SMILES IDX 22 35
REMARK H PARENT 14 27
ROOT
ATOM      1  C   UNL     1     -27.271   2.772  10.952  1.00  0.00    +0.205 C 
ATOM      2  O   UNL     1     -28.696   2.805  10.721  1.00  0.00    -0.330 OA
ATOM      3  C   UNL     1     -29.469   1.777  11.366  1.00  0.00    +0.337 C 
ATOM      4  C   UNL     1     -28.747   1.227  12.623  1.00  0.00    +0.199 C 
ATOM      5  C   UNL     1     -27.377   0.615  12.248  1.00  0.00    +0.249 C 
ATOM      6  C   UNL     1     -26.724   1.332  11.036  1.00  0.00    +0.252 C 
ENDROOT
BRANCH   1   7
ATOM      7  C   UNL     1     -26.599   3.611   9.855  1.00  0.00    +0.269 C 
BRANCH   7   8
ATOM      8  O   UNL     1     -25.239   3.182   9.628  1.00  0.00    -0.463 OA
BRANCH   8   9
ATOM      9  C   UNL     1     -24.281   3.937  10.230  1.00  0.00    +0.302 C 
ATOM     10  O   UNL     1     -24.104   5.133  10.044  1.00  0.00    -0.253 OA
ATOM     11  C   UNL     1     -23.454   3.089  11.144  1.00  0.00    +0.139 C 
ENDBRANCH   8   9
ENDBRANCH   7   8
ENDBRANCH   1   7
BRANCH   6  12
ATOM     12  O   UNL     1     -27.034   0.590   9.830  1.00  0.00    -0.456 OA
BRANCH  12  13
ATOM     13  C   UNL     1     -26.152  -0.361   9.433  1.00  0.00    +0.303 C 
ATOM     14  O   UNL     1     -26.434  -1.371   8.806  1.00  0.00    -0.253 OA
ATOM     15  C   UNL     1     -24.772   0.003   9.886  1.00  0.00    +0.139 C 
ENDBRANCH  12  13
ENDBRANCH   6  12
BRANCH   3  16
ATOM     16  O   UNL     1     -29.710   0.739  10.403  1.00  0.00    -0.433 OA
BRANCH  16  17
ATOM     17  C   UNL     1     -30.933   0.160  10.419  1.00  0.00    +0.305 C 
ATOM     18  O   UNL     1     -31.866   0.466  11.147  1.00  0.00    -0.253 OA
ATOM     19  C   UNL     1     -30.984  -0.943   9.408  1.00  0.00    +0.139 C 
ENDBRANCH  16  17
ENDBRANCH   3  16
BRANCH   5  20
ATOM     20  O   UNL     1     -27.524  -0.808  12.012  1.00  0.00    -0.456 OA
BRANCH  20  21
ATOM     21  C   UNL     1     -27.406  -1.595  13.115  1.00  0.00    +0.303 C 
ATOM     22  O   UNL     1     -27.121  -1.198  14.235  1.00  0.00    -0.253 OA
ATOM     23  C   UNL     1     -27.635  -3.030  12.757  1.00  0.00    +0.139 C 
ENDBRANCH  20  21
ENDBRANCH   5  20
BRANCH   4  24
ATOM     24  N   UNL     1     -29.544   0.317  13.436  1.00  0.00    -0.308 N 
ATOM     25  C   UNL     1     -29.751   0.542  14.764  1.00  0.00    +0.408 C 
ATOM     26  O   UNL     1     -29.161   1.388  15.420  1.00  0.00    -0.225 OA
ATOM     27  H   UNL     1     -30.229  -0.280  12.993  1.00  0.00    +0.167 HD
BRANCH  25  28
ATOM     28  O   UNL     1     -30.707  -0.300  15.210  1.00  0.00    -0.445 OA
BRANCH  28  29
ATOM     29  C   UNL     1     -30.278  -1.644  15.454  1.00  0.00    +0.270 C 
BRANCH  29  30
ATOM     30  C   UNL     1     -31.085  -2.591  14.603  1.00  0.00    -0.011 A 
ATOM     31  C   UNL     1     -31.663  -3.735  15.169  1.00  0.00    +0.007 A 
ATOM     32  C   UNL     1     -31.237  -2.362  13.228  1.00  0.00    +0.007 A 
ATOM     33  C   UNL     1     -32.398  -4.621  14.380  1.00  0.00    +0.000 A 
ATOM     34  C   UNL     1     -31.973  -3.250  12.440  1.00  0.00    +0.000 A 
ATOM     35  C   UNL     1     -32.555  -4.377  13.018  1.00  0.00    +0.000 A 
ENDBRANCH  29  30
ENDBRANCH  28  29
ENDBRANCH  25  28
ENDBRANCH   4  24
TORSDOF 13
ENDMDL
MODEL 9
REMARK VINA RESULT:    -5.926      4.911      9.480
REMARK INTER + INTRA:         -12.398
REMARK INTER:                 -11.170
REMARK INTRA:                  -1.228
REMARK UNBOUND:                -1.968
REMARK SMILES CC(=O)OC[C@H]1O[C@@H](OC(C)=O)[C@@H](NC(=O)OCc2ccccc2)[C@@H](OC(C)=O)[C@H]1OC(C)=O
REMARK SMILES IDX 6 1 7 2 8 3 13 4 25 5 30 6 5 7 4 8 2 9 3 10 1 11 31 12 32 13
REMARK SMILES IDX 34 14 33 15 9 16 10 17 12 18 11 19 26 20 27 21 29 22 28 23
REMARK SMILES IDX 14 24 15 25 16 26 17 28 18 29 19 30 20 31 24 32 21 33 23 34
REMARK SMILES IDX 22 35
REMARK H PARENT 14 27
ROOT
ATOM      1  C   UNL     1     -34.253   4.132   8.379  1.00  0.00    +0.205 C 
ATOM      2  O   UNL     1     -32.984   3.864   9.011  1.00  0.00    -0.330 OA
ATOM      3  C   UNL     1     -32.935   2.719   9.882  1.00  0.00    +0.337 C 
ATOM      4  C   UNL     1     -34.026   1.680   9.515  1.00  0.00    +0.199 C 
ATOM      5  C   UNL     1     -35.438   2.298   9.633  1.00  0.00    +0.249 C 
ATOM      6  C   UNL     1     -35.446   3.814   9.303  1.00  0.00    +0.252 C 
ENDROOT
BRANCH   1   7
ATOM      7  C   UNL     1     -34.236   5.589   7.894  1.00  0.00    +0.269 C 
BRANCH   7   8
ATOM      8  O   UNL     1     -32.905   6.145   7.955  1.00  0.00    -0.463 OA
BRANCH   8   9
ATOM      9  C   UNL     1     -32.552   6.933   6.905  1.00  0.00    +0.302 C 
ATOM     10  O   UNL     1     -31.767   7.871   6.957  1.00  0.00    -0.253 OA
ATOM     11  C   UNL     1     -33.277   6.502   5.669  1.00  0.00    +0.139 C 
ENDBRANCH   8   9
ENDBRANCH   7   8
ENDBRANCH   1   7
BRANCH   6  12
ATOM     12  O   UNL     1     -35.357   4.563  10.541  1.00  0.00    -0.456 OA
BRANCH  12  13
ATOM     13  C   UNL     1     -36.343   5.456  10.809  1.00  0.00    +0.303 C 
ATOM     14  O   UNL     1     -36.414   6.153  11.810  1.00  0.00    -0.253 OA
ATOM     15  C   UNL     1     -37.346   5.456   9.698  1.00  0.00    +0.139 C 
ENDBRANCH  12  13
ENDBRANCH   6  12
BRANCH   3  16
ATOM     16  O   UNL     1     -33.089   3.188  11.232  1.00  0.00    -0.433 OA
BRANCH  16  17
ATOM     17  C   UNL     1     -32.657   2.367  12.217  1.00  0.00    +0.305 C 
ATOM     18  O   UNL     1     -31.670   1.649  12.176  1.00  0.00    -0.253 OA
ATOM     19  C   UNL     1     -33.587   2.452  13.389  1.00  0.00    +0.139 C 
ENDBRANCH  16  17
ENDBRANCH   3  16
BRANCH   5  20
ATOM     20  O   UNL     1     -35.980   2.035  10.953  1.00  0.00    -0.456 OA
BRANCH  20  21
ATOM     21  C   UNL     1     -37.147   1.337  10.972  1.00  0.00    +0.303 C 
ATOM     22  O   UNL     1     -37.248   0.130  10.810  1.00  0.00    -0.253 OA
ATOM     23  C   UNL     1     -38.303   2.265  11.181  1.00  0.00    +0.139 C 
ENDBRANCH  20  21
ENDBRANCH   5  20
BRANCH   4  24
ATOM     24  N   UNL     1     -33.926   0.413  10.228  1.00  0.00    -0.308 N 
ATOM     25  C   UNL     1     -32.776  -0.318  10.226  1.00  0.00    +0.408 C 
ATOM     26  O   UNL     1     -31.817  -0.092   9.503  1.00  0.00    -0.225 OA
ATOM     27  H   UNL     1     -34.549   0.222  11.001  1.00  0.00    +0.167 HD
BRANCH  25  28
ATOM     28  O   UNL     1     -32.876  -1.300  11.146  1.00  0.00    -0.445 OA
BRANCH  28  29
ATOM     29  C   UNL     1     -31.732  -2.155  11.261  1.00  0.00    +0.270 C 
BRANCH  29  30
ATOM     30  C   UNL     1     -31.355  -2.296  12.714  1.00  0.00    -0.011 A 
ATOM     31  C   UNL     1     -30.638  -1.281  13.362  1.00  0.00    +0.007 A 
ATOM     32  C   UNL     1     -31.682  -3.458  13.426  1.00  0.00    +0.007 A 
ATOM     33  C   UNL     1     -30.274  -1.417  14.702  1.00  0.00    +0.000 A 
ATOM     34  C   UNL     1     -31.318  -3.592  14.767  1.00  0.00    +0.000 A 
ATOM     35  C   UNL     1     -30.617  -2.570  15.405  1.00  0.00    +0.000 A 
ENDBRANCH  29  30
ENDBRANCH  28  29
ENDBRANCH  25  28
ENDBRANCH   4  24
TORSDOF 13
ENDMDL
