REMARK SMILES CN(C)C1=C(Cl)C(=O)c2ccccc2C1=O
REMARK SMILES IDX 4 1 5 2 6 3 7 4 8 5 9 6 14 7 13 8 12 9 11 10 10 11 15 12
REMARK SMILES IDX 16 13 2 14 1 15 3 16
REMARK H PARENT
ROOT
ATOM      1  C   UNL     1      -0.998   0.566   0.357  1.00  0.00    +0.108 C 
ATOM      2  C   UNL     1      -0.248   1.677   0.502  1.00  0.00    +0.116 C 
ATOM      3 Cl   UNL     1      -0.946   3.173   1.057  1.00  0.00    -0.078 Cl
ATOM      4  C   UNL     1       1.217   1.725   0.256  1.00  0.00    +0.207 C 
ATOM      5  O   UNL     1       1.874   2.757   0.344  1.00  0.00    -0.287 OA
ATOM      6  C   UNL     1       1.889   0.469  -0.103  1.00  0.00    +0.035 A 
ATOM      7  C   UNL     1       1.156  -0.699  -0.268  1.00  0.00    +0.035 A 
ATOM      8  C   UNL     1       1.814  -1.889  -0.616  1.00  0.00    +0.013 A 
ATOM      9  C   UNL     1       3.198  -1.903  -0.794  1.00  0.00    +0.001 A 
ATOM     10  C   UNL     1       3.932  -0.731  -0.627  1.00  0.00    +0.001 A 
ATOM     11  C   UNL     1       3.281   0.454  -0.284  1.00  0.00    +0.013 A 
ATOM     12  C   UNL     1      -0.307  -0.703  -0.094  1.00  0.00    +0.211 C 
ATOM     13  O   UNL     1      -0.927  -1.736  -0.332  1.00  0.00    -0.287 OA
ENDROOT
BRANCH   1  14
ATOM     14  N   UNL     1      -2.395   0.512   0.590  1.00  0.00    -0.373 N 
ATOM     15  C   UNL     1      -2.991  -0.647   1.266  1.00  0.00    +0.143 C 
ATOM     16  C   UNL     1      -3.294   1.091  -0.419  1.00  0.00    +0.143 C 
ENDBRANCH   1  14
TORSDOF 1
