REMARK SMILES Brc1ccc2oc3ccccc3c2c1
REMARK SMILES IDX 1 1 2 2 14 3 13 4 5 5 6 6 7 7 8 8 9 9 10 10 11 11 12 12 4 13
REMARK SMILES IDX 3 14
REMARK H PARENT
ROOT
ATOM      1 Br   UNL     1       4.683   1.391  -0.681  1.00  0.00    -0.051 Br
ATOM      2  C   UNL     1       3.127   0.363  -0.352  1.00  0.00    +0.018 A 
ATOM      3  C   UNL     1       1.878   0.999  -0.353  1.00  0.00    +0.028 A 
ATOM      4  C   UNL     1       0.731   0.220  -0.107  1.00  0.00    +0.029 A 
ATOM      5  C   UNL     1       0.891  -1.143   0.126  1.00  0.00    +0.135 A 
ATOM      6  O   UNL     1      -0.314  -1.736   0.344  1.00  0.00    -0.456 OA
ATOM      7  C   UNL     1      -1.260  -0.761   0.254  1.00  0.00    +0.135 A 
ATOM      8  C   UNL     1      -2.631  -0.953   0.414  1.00  0.00    +0.048 A 
ATOM      9  C   UNL     1      -3.440   0.180   0.282  1.00  0.00    +0.004 A 
ATOM     10  C   UNL     1      -2.888   1.434   0.004  1.00  0.00    +0.001 A 
ATOM     11  C   UNL     1      -1.504   1.595  -0.152  1.00  0.00    +0.013 A 
ATOM     12  C   UNL     1      -0.671   0.468  -0.024  1.00  0.00    +0.028 A 
ATOM     13  C   UNL     1       2.122  -1.796   0.132  1.00  0.00    +0.049 A 
ATOM     14  C   UNL     1       3.251  -1.008  -0.114  1.00  0.00    +0.019 A 
ENDROOT
TORSDOF 0
