MODEL 1
REMARK VINA RESULT:    -8.198      0.000      0.000
REMARK INTER + INTRA:          -8.402
REMARK INTER:                  -8.677
REMARK INTRA:                   0.275
REMARK UNBOUND:                 0.275
REMARK SMILES CN(C)C1=C(Cl)C(=O)c2ccccc2C1=O
REMARK SMILES IDX 4 1 5 2 6 3 7 4 8 5 9 6 14 7 13 8 12 9 11 10 10 11 15 12
REMARK SMILES IDX 16 13 2 14 1 15 3 16
REMARK H PARENT
ROOT
ATOM      1  C   UNL     1     -28.979  10.514   6.468  1.00  0.00    +0.108 C 
ATOM      2  C   UNL     1     -27.960  11.174   5.882  1.00  0.00    +0.116 C 
ATOM      3 Cl   UNL     1     -28.159  12.799   5.287  1.00  0.00    -0.078 Cl
ATOM      4  C   UNL     1     -26.590  10.617   5.730  1.00  0.00    +0.207 C 
ATOM      5  O   UNL     1     -25.690  11.213   5.148  1.00  0.00    -0.287 OA
ATOM      6  C   UNL     1     -26.324   9.296   6.313  1.00  0.00    +0.035 A 
ATOM      7  C   UNL     1     -27.344   8.577   6.922  1.00  0.00    +0.035 A 
ATOM      8  C   UNL     1     -27.073   7.313   7.470  1.00  0.00    +0.013 A 
ATOM      9  C   UNL     1     -25.785   6.780   7.406  1.00  0.00    +0.001 A 
ATOM     10  C   UNL     1     -24.762   7.502   6.796  1.00  0.00    +0.001 A 
ATOM     11  C   UNL     1     -25.029   8.757   6.248  1.00  0.00    +0.013 A 
ATOM     12  C   UNL     1     -28.712   9.119   6.991  1.00  0.00    +0.211 C 
ATOM     13  O   UNL     1     -29.603   8.416   7.462  1.00  0.00    -0.287 OA
ENDROOT
BRANCH   1  14
ATOM     14  N   UNL     1     -30.287  11.038   6.617  1.00  0.00    -0.373 N 
ATOM     15  C   UNL     1     -30.633  11.849   7.791  1.00  0.00    +0.143 C 
ATOM     16  C   UNL     1     -31.421  10.230   6.145  1.00  0.00    +0.143 C 
ENDBRANCH   1  14
TORSDOF 1
ENDMDL
MODEL 2
REMARK VINA RESULT:    -7.123      8.030     10.243
REMARK INTER + INTRA:          -7.264
REMARK INTER:                  -7.239
REMARK INTRA:                  -0.025
REMARK UNBOUND:                 0.275
REMARK SMILES CN(C)C1=C(Cl)C(=O)c2ccccc2C1=O
REMARK SMILES IDX 4 1 5 2 6 3 7 4 8 5 9 6 14 7 13 8 12 9 11 10 10 11 15 12
REMARK SMILES IDX 16 13 2 14 1 15 3 16
REMARK H PARENT
ROOT
ATOM      1  C   UNL     1     -26.333   2.352  10.742  1.00  0.00    +0.108 C 
ATOM      2  C   UNL     1     -26.790   2.710  11.959  1.00  0.00    +0.116 C 
ATOM      3 Cl   UNL     1     -26.059   4.013  12.852  1.00  0.00    -0.078 Cl
ATOM      4  C   UNL     1     -27.961   2.078  12.622  1.00  0.00    +0.207 C 
ATOM      5  O   UNL     1     -28.331   2.381  13.751  1.00  0.00    -0.287 OA
ATOM      6  C   UNL     1     -28.695   1.049  11.873  1.00  0.00    +0.035 A 
ATOM      7  C   UNL     1     -28.258   0.646  10.618  1.00  0.00    +0.035 A 
ATOM      8  C   UNL     1     -28.969  -0.341   9.918  1.00  0.00    +0.013 A 
ATOM      9  C   UNL     1     -30.112  -0.916  10.477  1.00  0.00    +0.001 A 
ATOM     10  C   UNL     1     -30.549  -0.510  11.735  1.00  0.00    +0.001 A 
ATOM     11  C   UNL     1     -29.844   0.469  12.434  1.00  0.00    +0.013 A 
ATOM     12  C   UNL     1     -27.049   1.234  10.015  1.00  0.00    +0.211 C 
ATOM     13  O   UNL     1     -26.649   0.790   8.942  1.00  0.00    -0.287 OA
ENDROOT
BRANCH   1  14
ATOM     14  N   UNL     1     -25.219   2.950  10.102  1.00  0.00    -0.373 N 
ATOM     15  C   UNL     1     -23.859   2.706  10.598  1.00  0.00    +0.143 C 
ATOM     16  C   UNL     1     -25.374   4.303   9.549  1.00  0.00    +0.143 C 
ENDBRANCH   1  14
TORSDOF 1
ENDMDL
MODEL 3
REMARK VINA RESULT:    -7.004      6.918      8.840
REMARK INTER + INTRA:          -7.138
REMARK INTER:                  -7.152
REMARK INTRA:                   0.014
REMARK UNBOUND:                 0.275
REMARK SMILES CN(C)C1=C(Cl)C(=O)c2ccccc2C1=O
REMARK SMILES IDX 4 1 5 2 6 3 7 4 8 5 9 6 14 7 13 8 12 9 11 10 10 11 15 12
REMARK SMILES IDX 16 13 2 14 1 15 3 16
REMARK H PARENT
ROOT
ATOM      1  C   UNL     1     -33.407   4.161   9.215  1.00  0.00    +0.108 C 
ATOM      2  C   UNL     1     -34.219   3.564   8.320  1.00  0.00    +0.116 C 
ATOM      3 Cl   UNL     1     -35.182   2.180   8.754  1.00  0.00    -0.078 Cl
ATOM      4  C   UNL     1     -34.406   4.042   6.925  1.00  0.00    +0.207 C 
ATOM      5  O   UNL     1     -35.111   3.457   6.109  1.00  0.00    -0.287 OA
ATOM      6  C   UNL     1     -33.712   5.274   6.528  1.00  0.00    +0.035 A 
ATOM      7  C   UNL     1     -32.861   5.920   7.415  1.00  0.00    +0.035 A 
ATOM      8  C   UNL     1     -32.202   7.093   7.017  1.00  0.00    +0.013 A 
ATOM      9  C   UNL     1     -32.399   7.612   5.737  1.00  0.00    +0.001 A 
ATOM     10  C   UNL     1     -33.253   6.964   4.848  1.00  0.00    +0.001 A 
ATOM     11  C   UNL     1     -33.908   5.796   5.240  1.00  0.00    +0.013 A 
ATOM     12  C   UNL     1     -32.632   5.382   8.768  1.00  0.00    +0.211 C 
ATOM     13  O   UNL     1     -31.808   5.935   9.491  1.00  0.00    -0.287 OA
ENDROOT
BRANCH   1  14
ATOM     14  N   UNL     1     -33.223   3.712  10.547  1.00  0.00    -0.373 N 
ATOM     15  C   UNL     1     -32.679   2.374  10.811  1.00  0.00    +0.143 C 
ATOM     16  C   UNL     1     -34.199   4.127  11.565  1.00  0.00    +0.143 C 
ENDBRANCH   1  14
TORSDOF 1
ENDMDL
MODEL 4
REMARK VINA RESULT:    -6.916      7.986     10.426
REMARK INTER + INTRA:          -7.045
REMARK INTER:                  -7.343
REMARK INTRA:                   0.298
REMARK UNBOUND:                 0.275
REMARK SMILES CN(C)C1=C(Cl)C(=O)c2ccccc2C1=O
REMARK SMILES IDX 4 1 5 2 6 3 7 4 8 5 9 6 14 7 13 8 12 9 11 10 10 11 15 12
REMARK SMILES IDX 16 13 2 14 1 15 3 16
REMARK H PARENT
ROOT
ATOM      1  C   UNL     1     -33.971   5.124   8.496  1.00  0.00    +0.108 C 
ATOM      2  C   UNL     1     -33.848   4.019   9.259  1.00  0.00    +0.116 C 
ATOM      3 Cl   UNL     1     -32.326   3.183   9.402  1.00  0.00    -0.078 Cl
ATOM      4  C   UNL     1     -34.954   3.445  10.069  1.00  0.00    +0.207 C 
ATOM      5  O   UNL     1     -34.837   2.410  10.717  1.00  0.00    -0.287 OA
ATOM      6  C   UNL     1     -36.233   4.167  10.085  1.00  0.00    +0.035 A 
ATOM      7  C   UNL     1     -36.406   5.307   9.312  1.00  0.00    +0.035 A 
ATOM      8  C   UNL     1     -37.637   5.982   9.335  1.00  0.00    +0.013 A 
ATOM      9  C   UNL     1     -38.682   5.514  10.132  1.00  0.00    +0.001 A 
ATOM     10  C   UNL     1     -38.506   4.371  10.909  1.00  0.00    +0.001 A 
ATOM     11  C   UNL     1     -37.286   3.697  10.885  1.00  0.00    +0.013 A 
ATOM     12  C   UNL     1     -35.318   5.812   8.456  1.00  0.00    +0.211 C 
ATOM     13  O   UNL     1     -35.540   6.773   7.724  1.00  0.00    -0.287 OA
ENDROOT
BRANCH   1  14
ATOM     14  N   UNL     1     -32.921   5.677   7.721  1.00  0.00    -0.373 N 
ATOM     15  C   UNL     1     -31.978   6.629   8.320  1.00  0.00    +0.143 C 
ATOM     16  C   UNL     1     -33.178   5.966   6.303  1.00  0.00    +0.143 C 
ENDBRANCH   1  14
TORSDOF 1
ENDMDL
MODEL 5
REMARK VINA RESULT:    -6.904      9.856     10.873
REMARK INTER + INTRA:          -7.033
REMARK INTER:                  -7.078
REMARK INTRA:                   0.045
REMARK UNBOUND:                 0.275
REMARK SMILES CN(C)C1=C(Cl)C(=O)c2ccccc2C1=O
REMARK SMILES IDX 4 1 5 2 6 3 7 4 8 5 9 6 14 7 13 8 12 9 11 10 10 11 15 12
REMARK SMILES IDX 16 13 2 14 1 15 3 16
REMARK H PARENT
ROOT
ATOM      1  C   UNL     1     -26.943   0.193  11.724  1.00  0.00    +0.108 C 
ATOM      2  C   UNL     1     -26.730   1.483  12.051  1.00  0.00    +0.116 C 
ATOM      3 Cl   UNL     1     -27.948   2.421  12.869  1.00  0.00    -0.078 Cl
ATOM      4  C   UNL     1     -25.454   2.201  11.798  1.00  0.00    +0.207 C 
ATOM      5  O   UNL     1     -25.295   3.390  12.057  1.00  0.00    -0.287 OA
ATOM      6  C   UNL     1     -24.344   1.435  11.215  1.00  0.00    +0.035 A 
ATOM      7  C   UNL     1     -24.520   0.104  10.858  1.00  0.00    +0.035 A 
ATOM      8  C   UNL     1     -23.450  -0.612  10.298  1.00  0.00    +0.013 A 
ATOM      9  C   UNL     1     -22.214   0.006  10.102  1.00  0.00    +0.001 A 
ATOM     10  C   UNL     1     -22.040   1.340  10.462  1.00  0.00    +0.001 A 
ATOM     11  C   UNL     1     -23.101   2.056  11.016  1.00  0.00    +0.013 A 
ATOM     12  C   UNL     1     -25.819  -0.563  11.048  1.00  0.00    +0.211 C 
ATOM     13  O   UNL     1     -25.957  -1.714  10.641  1.00  0.00    -0.287 OA
ENDROOT
BRANCH   1  14
ATOM     14  N   UNL     1     -28.157  -0.500  11.963  1.00  0.00    -0.373 N 
ATOM     15  C   UNL     1     -28.210  -1.588  12.947  1.00  0.00    +0.143 C 
ATOM     16  C   UNL     1     -29.064  -0.730  10.829  1.00  0.00    +0.143 C 
ENDBRANCH   1  14
TORSDOF 1
ENDMDL
MODEL 6
REMARK VINA RESULT:    -6.816      8.402     10.611
REMARK INTER + INTRA:          -6.939
REMARK INTER:                  -6.929
REMARK INTRA:                  -0.011
REMARK UNBOUND:                 0.275
REMARK SMILES CN(C)C1=C(Cl)C(=O)c2ccccc2C1=O
REMARK SMILES IDX 4 1 5 2 6 3 7 4 8 5 9 6 14 7 13 8 12 9 11 10 10 11 15 12
REMARK SMILES IDX 16 13 2 14 1 15 3 16
REMARK H PARENT
ROOT
ATOM      1  C   UNL     1     -25.151   2.095  10.769  1.00  0.00    +0.108 C 
ATOM      2  C   UNL     1     -26.265   1.450  10.369  1.00  0.00    +0.116 C 
ATOM      3 Cl   UNL     1     -27.784   2.287  10.203  1.00  0.00    -0.078 Cl
ATOM      4  C   UNL     1     -26.300   0.012   9.995  1.00  0.00    +0.207 C 
ATOM      5  O   UNL     1     -27.333  -0.570   9.682  1.00  0.00    -0.287 OA
ATOM      6  C   UNL     1     -25.029  -0.724  10.002  1.00  0.00    +0.035 A 
ATOM      7  C   UNL     1     -23.857  -0.102  10.411  1.00  0.00    +0.035 A 
ATOM      8  C   UNL     1     -22.653  -0.823  10.416  1.00  0.00    +0.013 A 
ATOM      9  C   UNL     1     -22.628  -2.158  10.011  1.00  0.00    +0.001 A 
ATOM     10  C   UNL     1     -23.805  -2.780   9.599  1.00  0.00    +0.001 A 
ATOM     11  C   UNL     1     -25.004  -2.068   9.596  1.00  0.00    +0.013 A 
ATOM     12  C   UNL     1     -23.863   1.304  10.852  1.00  0.00    +0.211 C 
ATOM     13  O   UNL     1     -22.823   1.791  11.286  1.00  0.00    -0.287 OA
ENDROOT
BRANCH   1  14
ATOM     14  N   UNL     1     -25.109   3.466  11.128  1.00  0.00    -0.373 N 
ATOM     15  C   UNL     1     -25.852   3.951  12.297  1.00  0.00    +0.143 C 
ATOM     16  C   UNL     1     -25.048   4.467  10.052  1.00  0.00    +0.143 C 
ENDBRANCH   1  14
TORSDOF 1
ENDMDL
MODEL 7
REMARK VINA RESULT:    -6.809      2.153      4.494
REMARK INTER + INTRA:          -6.932
REMARK INTER:                  -7.166
REMARK INTRA:                   0.234
REMARK UNBOUND:                 0.275
REMARK SMILES CN(C)C1=C(Cl)C(=O)c2ccccc2C1=O
REMARK SMILES IDX 4 1 5 2 6 3 7 4 8 5 9 6 14 7 13 8 12 9 11 10 10 11 15 12
REMARK SMILES IDX 16 13 2 14 1 15 3 16
REMARK H PARENT
ROOT
ATOM      1  C   UNL     1     -28.105  10.231   6.244  1.00  0.00    +0.108 C 
ATOM      2  C   UNL     1     -29.057  11.184   6.193  1.00  0.00    +0.116 C 
ATOM      3 Cl   UNL     1     -28.720  12.765   5.544  1.00  0.00    -0.078 Cl
ATOM      4  C   UNL     1     -30.463  10.975   6.627  1.00  0.00    +0.207 C 
ATOM      5  O   UNL     1     -31.303  11.868   6.620  1.00  0.00    -0.287 OA
ATOM      6  C   UNL     1     -30.844   9.629   7.077  1.00  0.00    +0.035 A 
ATOM      7  C   UNL     1     -29.895   8.617   7.151  1.00  0.00    +0.035 A 
ATOM      8  C   UNL     1     -30.276   7.339   7.588  1.00  0.00    +0.013 A 
ATOM      9  C   UNL     1     -31.600   7.081   7.945  1.00  0.00    +0.001 A 
ATOM     10  C   UNL     1     -32.550   8.096   7.869  1.00  0.00    +0.001 A 
ATOM     11  C   UNL     1     -32.175   9.369   7.438  1.00  0.00    +0.013 A 
ATOM     12  C   UNL     1     -28.490   8.872   6.788  1.00  0.00    +0.211 C 
ATOM     13  O   UNL     1     -27.667   7.974   6.949  1.00  0.00    -0.287 OA
ENDROOT
BRANCH   1  14
ATOM     14  N   UNL     1     -26.763  10.422   5.832  1.00  0.00    -0.373 N 
ATOM     15  C   UNL     1     -26.368  10.159   4.442  1.00  0.00    +0.143 C 
ATOM     16  C   UNL     1     -25.688  10.109   6.785  1.00  0.00    +0.143 C 
ENDBRANCH   1  14
TORSDOF 1
ENDMDL
MODEL 8
REMARK VINA RESULT:    -6.719      9.472     10.776
REMARK INTER + INTRA:          -6.837
REMARK INTER:                  -6.812
REMARK INTRA:                  -0.025
REMARK UNBOUND:                 0.275
REMARK SMILES CN(C)C1=C(Cl)C(=O)c2ccccc2C1=O
REMARK SMILES IDX 4 1 5 2 6 3 7 4 8 5 9 6 14 7 13 8 12 9 11 10 10 11 15 12
REMARK SMILES IDX 16 13 2 14 1 15 3 16
REMARK H PARENT
ROOT
ATOM      1  C   UNL     1     -26.967   1.069  11.478  1.00  0.00    +0.108 C 
ATOM      2  C   UNL     1     -26.926  -0.222  11.090  1.00  0.00    +0.116 C 
ATOM      3 Cl   UNL     1     -28.379  -1.172  10.955  1.00  0.00    -0.078 Cl
ATOM      4  C   UNL     1     -25.678  -0.931  10.704  1.00  0.00    +0.207 C 
ATOM      5  O   UNL     1     -25.653  -2.120  10.403  1.00  0.00    -0.287 OA
ATOM      6  C   UNL     1     -24.432  -0.154  10.684  1.00  0.00    +0.035 A 
ATOM      7  C   UNL     1     -24.426   1.177  11.080  1.00  0.00    +0.035 A 
ATOM      8  C   UNL     1     -23.224   1.903  11.059  1.00  0.00    +0.013 A 
ATOM      9  C   UNL     1     -22.040   1.294  10.642  1.00  0.00    +0.001 A 
ATOM     10  C   UNL     1     -22.048  -0.041  10.244  1.00  0.00    +0.001 A 
ATOM     11  C   UNL     1     -23.239  -0.766  10.266  1.00  0.00    +0.013 A 
ATOM     12  C   UNL     1     -25.663   1.836  11.533  1.00  0.00    +0.211 C 
ATOM     13  O   UNL     1     -25.599   2.987  11.954  1.00  0.00    -0.287 OA
ENDROOT
BRANCH   1  14
ATOM     14  N   UNL     1     -28.153   1.752  11.847  1.00  0.00    -0.373 N 
ATOM     15  C   UNL     1     -28.826   1.440  13.114  1.00  0.00    +0.143 C 
ATOM     16  C   UNL     1     -29.103   2.124  10.789  1.00  0.00    +0.143 C 
ENDBRANCH   1  14
TORSDOF 1
ENDMDL
MODEL 9
REMARK VINA RESULT:    -6.556      1.957      4.592
REMARK INTER + INTRA:          -6.665
REMARK INTER:                  -6.897
REMARK INTRA:                   0.232
REMARK UNBOUND:                 0.275
REMARK SMILES CN(C)C1=C(Cl)C(=O)c2ccccc2C1=O
REMARK SMILES IDX 4 1 5 2 6 3 7 4 8 5 9 6 14 7 13 8 12 9 11 10 10 11 15 12
REMARK SMILES IDX 16 13 2 14 1 15 3 16
REMARK H PARENT
ROOT
ATOM      1  C   UNL     1     -27.105   9.555   6.344  1.00  0.00    +0.108 C 
ATOM      2  C   UNL     1     -27.195  10.796   5.824  1.00  0.00    +0.116 C 
ATOM      3 Cl   UNL     1     -25.868  11.507   4.947  1.00  0.00    -0.078 Cl
ATOM      4  C   UNL     1     -28.415  11.640   5.903  1.00  0.00    +0.207 C 
ATOM      5  O   UNL     1     -28.461  12.787   5.469  1.00  0.00    -0.287 OA
ATOM      6  C   UNL     1     -29.609  11.056   6.529  1.00  0.00    +0.035 A 
ATOM      7  C   UNL     1     -29.562   9.783   7.081  1.00  0.00    +0.035 A 
ATOM      8  C   UNL     1     -30.710   9.242   7.680  1.00  0.00    +0.013 A 
ATOM      9  C   UNL     1     -31.897   9.975   7.719  1.00  0.00    +0.001 A 
ATOM     10  C   UNL     1     -31.943  11.252   7.163  1.00  0.00    +0.001 A 
ATOM     11  C   UNL     1     -30.802  11.794   6.570  1.00  0.00    +0.013 A 
ATOM     12  C   UNL     1     -28.316   8.996   7.059  1.00  0.00    +0.211 C 
ATOM     13  O   UNL     1     -28.293   7.910   7.633  1.00  0.00    -0.287 OA
ENDROOT
BRANCH   1  14
ATOM     14  N   UNL     1     -25.945   8.743   6.272  1.00  0.00    -0.373 N 
ATOM     15  C   UNL     1     -26.044   7.343   5.840  1.00  0.00    +0.143 C 
ATOM     16  C   UNL     1     -24.890   8.943   7.276  1.00  0.00    +0.143 C 
ENDBRANCH   1  14
TORSDOF 1
ENDMDL
