REMARK SMILES CCOC(=O)CCC(=O)c1ccc(OC)c2ccccc12
REMARK SMILES IDX 6 1 4 2 5 3 3 4 2 5 1 6 7 7 8 8 9 9 10 10 21 11 11 12 20 13
REMARK SMILES IDX 16 14 12 15 19 16 17 17 13 18 18 19 14 20 15 21
REMARK H PARENT
ROOT
ATOM      1  C   UNL     1       2.223  -0.692   2.583  1.00  0.00    +0.131 C 
ENDROOT
BRANCH   1   2
ATOM      2  C   UNL     1       3.032   0.327   1.826  1.00  0.00    +0.306 C 
ATOM      3  O   UNL     1       2.833   1.532   1.872  1.00  0.00    -0.252 OA
BRANCH   2   4
ATOM      4  O   UNL     1       3.966  -0.291   1.055  1.00  0.00    -0.466 OA
BRANCH   4   5
ATOM      5  C   UNL     1       4.776   0.571   0.241  1.00  0.00    +0.229 C 
ATOM      6  C   UNL     1       4.067   0.874  -1.068  1.00  0.00    +0.049 C 
ENDBRANCH   4   5
ENDBRANCH   2   4
ENDBRANCH   1   2
BRANCH   1   7
ATOM      7  C   UNL     1       1.146  -1.284   1.682  1.00  0.00    +0.093 C 
BRANCH   7   8
ATOM      8  C   UNL     1      -0.246  -0.830   2.077  1.00  0.00    +0.164 C 
ATOM      9  O   UNL     1      -0.613  -0.702   3.240  1.00  0.00    -0.294 OA
BRANCH   8  10
ATOM     10  C   UNL     1      -1.231  -0.674   0.986  1.00  0.00    +0.026 A 
ATOM     11  C   UNL     1      -1.216   0.438   0.114  1.00  0.00    -0.004 A 
ATOM     12  C   UNL     1      -2.155  -1.713   0.839  1.00  0.00    +0.016 A 
ATOM     13  C   UNL     1      -0.335   1.534   0.269  1.00  0.00    +0.009 A 
ATOM     14  C   UNL     1      -2.143   0.455  -0.962  1.00  0.00    +0.024 A 
ATOM     15  C   UNL     1      -3.070  -1.682  -0.209  1.00  0.00    +0.048 A 
ATOM     16  C   UNL     1      -0.334   2.604  -0.626  1.00  0.00    +0.001 A 
ATOM     17  C   UNL     1      -2.116   1.553  -1.852  1.00  0.00    +0.012 A 
ATOM     18  C   UNL     1      -3.069  -0.614  -1.113  1.00  0.00    +0.126 A 
ATOM     19  C   UNL     1      -1.222   2.611  -1.691  1.00  0.00    +0.001 A 
BRANCH  18  20
ATOM     20  O   UNL     1      -3.925  -0.524  -2.187  1.00  0.00    -0.496 OA
ATOM     21  C   UNL     1      -4.966  -1.486  -2.285  1.00  0.00    +0.278 C 
ENDBRANCH  18  20
ENDBRANCH   8  10
ENDBRANCH   7   8
ENDBRANCH   1   7
TORSDOF 7
