MODEL 1
REMARK VINA RESULT:   -10.122      0.000      0.000
REMARK INTER + INTRA:         -12.910
REMARK INTER:                 -12.489
REMARK INTRA:                  -0.420
REMARK UNBOUND:                -0.420
REMARK SMILES O=S(=O)(O)c1ccc(O)c2cc(Nc3ccccc3)ccc12
REMARK SMILES IDX 8 1 10 2 11 3 12 4 20 5 21 6 22 7 5 8 6 9 7 10 9 11 13 13
REMARK SMILES IDX 14 15 15 16 19 17 16 18 18 19 17 20 2 21 1 22 3 23 4 24
REMARK H PARENT 9 12 13 14 4 25
ROOT
ATOM      1  C   UNL     1     -30.469  11.435   6.362  1.00  0.00    +0.123 A 
ATOM      2  C   UNL     1     -30.209  10.114   6.801  1.00  0.00    +0.027 A 
ATOM      3  C   UNL     1     -31.224   9.266   7.316  1.00  0.00    +0.038 A 
ATOM      4  C   UNL     1     -30.971   7.962   7.764  1.00  0.00    +0.039 A 
ATOM      5  C   UNL     1     -29.667   7.491   7.673  1.00  0.00    +0.027 A 
ATOM      6  C   UNL     1     -28.647   8.295   7.156  1.00  0.00    +0.012 A 
ATOM      7  C   UNL     1     -28.884   9.615   6.702  1.00  0.00    +0.007 A 
ATOM      8  C   UNL     1     -27.886  10.466   6.145  1.00  0.00    +0.102 A 
ATOM      9  C   UNL     1     -28.185  11.756   5.688  1.00  0.00    +0.027 A 
ATOM     10  C   UNL     1     -29.482  12.236   5.798  1.00  0.00    +0.048 A 
ENDROOT
BRANCH   1  11
ATOM     11  O   UNL     1     -31.701  12.028   6.463  1.00  0.00    -0.507 OA
ATOM     12  H   UNL     1     -32.330  11.380   6.813  1.00  0.00    +0.293 HD
ENDBRANCH   1  11
BRANCH   4  13
ATOM     13  N   UNL     1     -32.040   7.175   8.221  1.00  0.00    -0.356 N 
ATOM     14  H   UNL     1     -32.234   7.263   9.211  1.00  0.00    +0.167 HD
BRANCH  13  15
ATOM     15  C   UNL     1     -32.884   6.263   7.560  1.00  0.00    +0.038 A 
ATOM     16  C   UNL     1     -33.476   5.229   8.299  1.00  0.00    +0.026 A 
ATOM     17  C   UNL     1     -33.123   6.307   6.182  1.00  0.00    +0.026 A 
ATOM     18  C   UNL     1     -34.293   4.276   7.683  1.00  0.00    +0.002 A 
ATOM     19  C   UNL     1     -33.940   5.357   5.561  1.00  0.00    +0.002 A 
ATOM     20  C   UNL     1     -34.524   4.341   6.312  1.00  0.00    +0.000 A 
ENDBRANCH  13  15
ENDBRANCH   4  13
BRANCH   8  21
ATOM     21  S   UNL     1     -26.203   9.913   6.007  1.00  0.00    +0.295 S 
ATOM     22  O   UNL     1     -25.717   9.616   7.338  1.00  0.00    -0.194 OA
ATOM     23  O   UNL     1     -26.136   8.947   4.935  1.00  0.00    -0.194 OA
BRANCH  21  24
ATOM     24  O   UNL     1     -25.344  11.198   5.540  1.00  0.00    -0.282 OA
ATOM     25  H   UNL     1     -25.375  11.227   4.561  1.00  0.00    +0.234 HD
ENDBRANCH  21  24
ENDBRANCH   8  21
TORSDOF 5
ENDMDL
MODEL 2
REMARK VINA RESULT:    -9.600      3.715      5.732
REMARK INTER + INTRA:         -12.265
REMARK INTER:                 -12.251
REMARK INTRA:                  -0.014
REMARK UNBOUND:                -0.420
REMARK SMILES O=S(=O)(O)c1ccc(O)c2cc(Nc3ccccc3)ccc12
REMARK SMILES IDX 8 1 10 2 11 3 12 4 20 5 21 6 22 7 5 8 6 9 7 10 9 11 13 13
REMARK SMILES IDX 14 15 15 16 19 17 16 18 18 19 17 20 2 21 1 22 3 23 4 24
REMARK H PARENT 9 12 13 14 4 25
ROOT
ATOM      1  C   UNL     1     -26.661  10.904   5.715  1.00  0.00    +0.123 A 
ATOM      2  C   UNL     1     -27.134   9.746   6.378  1.00  0.00    +0.027 A 
ATOM      3  C   UNL     1     -26.286   8.662   6.722  1.00  0.00    +0.038 A 
ATOM      4  C   UNL     1     -26.750   7.507   7.367  1.00  0.00    +0.039 A 
ATOM      5  C   UNL     1     -28.099   7.449   7.693  1.00  0.00    +0.027 A 
ATOM      6  C   UNL     1     -28.959   8.507   7.384  1.00  0.00    +0.012 A 
ATOM      7  C   UNL     1     -28.508   9.679   6.730  1.00  0.00    +0.007 A 
ATOM      8  C   UNL     1     -29.336  10.794   6.414  1.00  0.00    +0.102 A 
ATOM      9  C   UNL     1     -28.828  11.939   5.788  1.00  0.00    +0.027 A 
ATOM     10  C   UNL     1     -27.486  11.990   5.441  1.00  0.00    +0.048 A 
ENDROOT
BRANCH   1  11
ATOM     11  O   UNL     1     -25.367  11.045   5.286  1.00  0.00    -0.507 OA
ATOM     12  H   UNL     1     -25.110  11.975   5.374  1.00  0.00    +0.293 HD
ENDBRANCH   1  11
BRANCH   4  13
ATOM     13  N   UNL     1     -25.835   6.498   7.707  1.00  0.00    -0.356 N 
ATOM     14  H   UNL     1     -24.933   6.576   7.251  1.00  0.00    +0.167 HD
BRANCH  13  15
ATOM     15  C   UNL     1     -25.944   5.378   8.551  1.00  0.00    +0.038 A 
ATOM     16  C   UNL     1     -24.916   5.118   9.471  1.00  0.00    +0.026 A 
ATOM     17  C   UNL     1     -27.010   4.474   8.485  1.00  0.00    +0.026 A 
ATOM     18  C   UNL     1     -24.960   3.998  10.306  1.00  0.00    +0.002 A 
ATOM     19  C   UNL     1     -27.059   3.353   9.318  1.00  0.00    +0.002 A 
ATOM     20  C   UNL     1     -26.033   3.114  10.229  1.00  0.00    +0.000 A 
ENDBRANCH  13  15
ENDBRANCH   4  13
BRANCH   8  21
ATOM     21  S   UNL     1     -31.069  10.772   6.809  1.00  0.00    +0.295 S 
ATOM     22  O   UNL     1     -31.618   9.513   6.353  1.00  0.00    -0.194 OA
ATOM     23  O   UNL     1     -31.222  11.224   8.173  1.00  0.00    -0.194 OA
BRANCH  21  24
ATOM     24  O   UNL     1     -31.761  11.882   5.862  1.00  0.00    -0.282 OA
ATOM     25  H   UNL     1     -32.654  11.550   5.633  1.00  0.00    +0.234 HD
ENDBRANCH  21  24
ENDBRANCH   8  21
TORSDOF 5
ENDMDL
MODEL 3
REMARK VINA RESULT:    -9.511      4.406      5.824
REMARK INTER + INTRA:         -12.155
REMARK INTER:                 -11.862
REMARK INTRA:                  -0.293
REMARK UNBOUND:                -0.420
REMARK SMILES O=S(=O)(O)c1ccc(O)c2cc(Nc3ccccc3)ccc12
REMARK SMILES IDX 8 1 10 2 11 3 12 4 20 5 21 6 22 7 5 8 6 9 7 10 9 11 13 13
REMARK SMILES IDX 14 15 15 16 19 17 16 18 18 19 17 20 2 21 1 22 3 23 4 24
REMARK H PARENT 9 12 13 14 4 25
ROOT
ATOM      1  C   UNL     1     -29.046   7.421   7.951  1.00  0.00    +0.123 A 
ATOM      2  C   UNL     1     -27.690   7.051   7.774  1.00  0.00    +0.027 A 
ATOM      3  C   UNL     1     -27.134   5.884   8.360  1.00  0.00    +0.038 A 
ATOM      4  C   UNL     1     -25.790   5.518   8.199  1.00  0.00    +0.039 A 
ATOM      5  C   UNL     1     -24.990   6.336   7.411  1.00  0.00    +0.027 A 
ATOM      6  C   UNL     1     -25.511   7.484   6.806  1.00  0.00    +0.012 A 
ATOM      7  C   UNL     1     -26.864   7.869   6.960  1.00  0.00    +0.007 A 
ATOM      8  C   UNL     1     -27.450   9.014   6.347  1.00  0.00    +0.102 A 
ATOM      9  C   UNL     1     -28.803   9.332   6.515  1.00  0.00    +0.027 A 
ATOM     10  C   UNL     1     -29.600   8.529   7.319  1.00  0.00    +0.048 A 
ENDROOT
BRANCH   1  11
ATOM     11  O   UNL     1     -29.911   6.728   8.758  1.00  0.00    -0.507 OA
ATOM     12  H   UNL     1     -29.618   5.806   8.808  1.00  0.00    +0.293 HD
ENDBRANCH   1  11
BRANCH   4  13
ATOM     13  N   UNL     1     -25.331   4.325   8.780  1.00  0.00    -0.356 N 
ATOM     14  H   UNL     1     -24.517   3.923   8.328  1.00  0.00    +0.167 HD
BRANCH  13  15
ATOM     15  C   UNL     1     -25.806   3.566   9.864  1.00  0.00    +0.038 A 
ATOM     16  C   UNL     1     -26.377   2.309   9.614  1.00  0.00    +0.026 A 
ATOM     17  C   UNL     1     -25.782   4.026  11.186  1.00  0.00    +0.026 A 
ATOM     18  C   UNL     1     -26.896   1.532  10.654  1.00  0.00    +0.002 A 
ATOM     19  C   UNL     1     -26.300   3.253  12.229  1.00  0.00    +0.002 A 
ATOM     20  C   UNL     1     -26.858   2.005  11.962  1.00  0.00    +0.000 A 
ENDBRANCH  13  15
ENDBRANCH   4  13
BRANCH   8  21
ATOM     21  S   UNL     1     -26.471  10.094   5.331  1.00  0.00    +0.295 S 
ATOM     22  O   UNL     1     -25.248  10.396   6.043  1.00  0.00    -0.194 OA
ATOM     23  O   UNL     1     -26.462   9.558   3.988  1.00  0.00    -0.194 OA
BRANCH  21  24
ATOM     24  O   UNL     1     -27.264  11.499   5.273  1.00  0.00    -0.282 OA
ATOM     25  H   UNL     1     -26.826  12.051   4.590  1.00  0.00    +0.234 HD
ENDBRANCH  21  24
ENDBRANCH   8  21
TORSDOF 5
ENDMDL
MODEL 4
REMARK VINA RESULT:    -9.100      4.125      7.269
REMARK INTER + INTRA:         -11.648
REMARK INTER:                 -11.547
REMARK INTRA:                  -0.100
REMARK UNBOUND:                -0.420
REMARK SMILES O=S(=O)(O)c1ccc(O)c2cc(Nc3ccccc3)ccc12
REMARK SMILES IDX 8 1 10 2 11 3 12 4 20 5 21 6 22 7 5 8 6 9 7 10 9 11 13 13
REMARK SMILES IDX 14 15 15 16 19 17 16 18 18 19 17 20 2 21 1 22 3 23 4 24
REMARK H PARENT 9 12 13 14 4 25
ROOT
ATOM      1  C   UNL     1     -33.042   7.058   5.450  1.00  0.00    +0.123 A 
ATOM      2  C   UNL     1     -32.038   7.101   6.447  1.00  0.00    +0.027 A 
ATOM      3  C   UNL     1     -30.883   7.919   6.335  1.00  0.00    +0.038 A 
ATOM      4  C   UNL     1     -29.880   7.957   7.314  1.00  0.00    +0.039 A 
ATOM      5  C   UNL     1     -30.052   7.168   8.444  1.00  0.00    +0.027 A 
ATOM      6  C   UNL     1     -31.185   6.363   8.593  1.00  0.00    +0.012 A 
ATOM      7  C   UNL     1     -32.207   6.310   7.614  1.00  0.00    +0.007 A 
ATOM      8  C   UNL     1     -33.391   5.527   7.728  1.00  0.00    +0.102 A 
ATOM      9  C   UNL     1     -34.381   5.534   6.737  1.00  0.00    +0.027 A 
ATOM     10  C   UNL     1     -34.202   6.304   5.597  1.00  0.00    +0.048 A 
ENDROOT
BRANCH   1  11
ATOM     11  O   UNL     1     -32.949   7.742   4.265  1.00  0.00    -0.507 OA
ATOM     12  H   UNL     1     -33.474   8.554   4.333  1.00  0.00    +0.293 HD
ENDBRANCH   1  11
BRANCH   4  13
ATOM     13  N   UNL     1     -28.790   8.825   7.143  1.00  0.00    -0.356 N 
ATOM     14  H   UNL     1     -27.917   8.487   7.531  1.00  0.00    +0.167 HD
BRANCH  13  15
ATOM     15  C   UNL     1     -28.687  10.097   6.550  1.00  0.00    +0.038 A 
ATOM     16  C   UNL     1     -27.507  10.436   5.871  1.00  0.00    +0.026 A 
ATOM     17  C   UNL     1     -29.691  11.067   6.647  1.00  0.00    +0.026 A 
ATOM     18  C   UNL     1     -27.341  11.699   5.297  1.00  0.00    +0.002 A 
ATOM     19  C   UNL     1     -29.530  12.332   6.073  1.00  0.00    +0.002 A 
ATOM     20  C   UNL     1     -28.354  12.648   5.399  1.00  0.00    +0.000 A 
ENDBRANCH  13  15
ENDBRANCH   4  13
BRANCH   8  21
ATOM     21  S   UNL     1     -33.659   4.499   9.152  1.00  0.00    +0.295 S 
ATOM     22  O   UNL     1     -35.036   4.051   9.131  1.00  0.00    -0.194 OA
ATOM     23  O   UNL     1     -32.555   3.571   9.249  1.00  0.00    -0.194 OA
BRANCH  21  24
ATOM     24  O   UNL     1     -33.571   5.474  10.436  1.00  0.00    -0.282 OA
ATOM     25  H   UNL     1     -34.329   6.094  10.382  1.00  0.00    +0.234 HD
ENDBRANCH  21  24
ENDBRANCH   8  21
TORSDOF 5
ENDMDL
MODEL 5
REMARK VINA RESULT:    -8.897      8.169     10.466
REMARK INTER + INTRA:         -11.398
REMARK INTER:                 -11.080
REMARK INTRA:                  -0.318
REMARK UNBOUND:                -0.420
REMARK SMILES O=S(=O)(O)c1ccc(O)c2cc(Nc3ccccc3)ccc12
REMARK SMILES IDX 8 1 10 2 11 3 12 4 20 5 21 6 22 7 5 8 6 9 7 10 9 11 13 13
REMARK SMILES IDX 14 15 15 16 19 17 16 18 18 19 17 20 2 21 1 22 3 23 4 24
REMARK H PARENT 9 12 13 14 4 25
ROOT
ATOM      1  C   UNL     1     -23.188   1.867  10.987  1.00  0.00    +0.123 A 
ATOM      2  C   UNL     1     -24.500   2.054  10.488  1.00  0.00    +0.027 A 
ATOM      3  C   UNL     1     -25.072   3.340  10.304  1.00  0.00    +0.038 A 
ATOM      4  C   UNL     1     -26.375   3.531   9.822  1.00  0.00    +0.039 A 
ATOM      5  C   UNL     1     -27.113   2.401   9.495  1.00  0.00    +0.027 A 
ATOM      6  C   UNL     1     -26.574   1.121   9.648  1.00  0.00    +0.012 A 
ATOM      7  C   UNL     1     -25.262   0.909  10.136  1.00  0.00    +0.007 A 
ATOM      8  C   UNL     1     -24.656  -0.372  10.288  1.00  0.00    +0.102 A 
ATOM      9  C   UNL     1     -23.343  -0.519  10.753  1.00  0.00    +0.027 A 
ATOM     10  C   UNL     1     -22.611   0.607  11.101  1.00  0.00    +0.048 A 
ENDROOT
BRANCH   1  11
ATOM     11  O   UNL     1     -22.392   2.902  11.403  1.00  0.00    -0.507 OA
ATOM     12  H   UNL     1     -22.496   3.642  10.786  1.00  0.00    +0.293 HD
ENDBRANCH   1  11
BRANCH   4  13
ATOM     13  N   UNL     1     -26.849   4.839   9.633  1.00  0.00    -0.356 N 
ATOM     14  H   UNL     1     -27.473   5.170  10.359  1.00  0.00    +0.167 HD
BRANCH  13  15
ATOM     15  C   UNL     1     -26.638   5.774   8.603  1.00  0.00    +0.038 A 
ATOM     16  C   UNL     1     -25.386   5.816   7.971  1.00  0.00    +0.026 A 
ATOM     17  C   UNL     1     -27.605   6.705   8.208  1.00  0.00    +0.026 A 
ATOM     18  C   UNL     1     -25.114   6.751   6.968  1.00  0.00    +0.002 A 
ATOM     19  C   UNL     1     -27.338   7.641   7.205  1.00  0.00    +0.002 A 
ATOM     20  C   UNL     1     -26.092   7.665   6.585  1.00  0.00    +0.000 A 
ENDBRANCH  13  15
ENDBRANCH   4  13
BRANCH   8  21
ATOM     21  S   UNL     1     -25.557  -1.850   9.886  1.00  0.00    +0.295 S 
ATOM     22  O   UNL     1     -26.663  -1.969  10.812  1.00  0.00    -0.194 OA
ATOM     23  O   UNL     1     -25.753  -1.878   8.454  1.00  0.00    -0.194 OA
BRANCH  21  24
ATOM     24  O   UNL     1     -24.585  -3.085  10.254  1.00  0.00    -0.282 OA
ATOM     25  H   UNL     1     -23.897  -2.740  10.862  1.00  0.00    +0.234 HD
ENDBRANCH  21  24
ENDBRANCH   8  21
TORSDOF 5
ENDMDL
MODEL 6
REMARK VINA RESULT:    -8.611      7.156      9.434
REMARK INTER + INTRA:         -11.045
REMARK INTER:                 -11.165
REMARK INTRA:                   0.119
REMARK UNBOUND:                -0.420
REMARK SMILES O=S(=O)(O)c1ccc(O)c2cc(Nc3ccccc3)ccc12
REMARK SMILES IDX 8 1 10 2 11 3 12 4 20 5 21 6 22 7 5 8 6 9 7 10 9 11 13 13
REMARK SMILES IDX 14 15 15 16 19 17 16 18 18 19 17 20 2 21 1 22 3 23 4 24
REMARK H PARENT 9 12 13 14 4 25
ROOT
ATOM      1  C   UNL     1     -27.185   0.623   9.855  1.00  0.00    +0.123 A 
ATOM      2  C   UNL     1     -26.530   1.874   9.756  1.00  0.00    +0.027 A 
ATOM      3  C   UNL     1     -27.224   3.080   9.475  1.00  0.00    +0.038 A 
ATOM      4  C   UNL     1     -26.580   4.321   9.363  1.00  0.00    +0.039 A 
ATOM      5  C   UNL     1     -25.205   4.353   9.561  1.00  0.00    +0.027 A 
ATOM      6  C   UNL     1     -24.494   3.186   9.856  1.00  0.00    +0.012 A 
ATOM      7  C   UNL     1     -25.127   1.925   9.970  1.00  0.00    +0.007 A 
ATOM      8  C   UNL     1     -24.454   0.712  10.291  1.00  0.00    +0.102 A 
ATOM      9  C   UNL     1     -25.138  -0.504  10.415  1.00  0.00    +0.027 A 
ATOM     10  C   UNL     1     -26.508  -0.543  10.196  1.00  0.00    +0.048 A 
ENDROOT
BRANCH   1  11
ATOM     11  O   UNL     1     -28.525   0.459   9.615  1.00  0.00    -0.507 OA
ATOM     12  H   UNL     1     -29.001   0.526  10.457  1.00  0.00    +0.293 HD
ENDBRANCH   1  11
BRANCH   4  13
ATOM     13  N   UNL     1     -27.347   5.471   9.123  1.00  0.00    -0.356 N 
ATOM     14  H   UNL     1     -28.151   5.576   9.731  1.00  0.00    +0.167 HD
BRANCH  13  15
ATOM     15  C   UNL     1     -27.222   6.501   8.173  1.00  0.00    +0.038 A 
ATOM     16  C   UNL     1     -28.256   7.441   8.050  1.00  0.00    +0.026 A 
ATOM     17  C   UNL     1     -26.130   6.607   7.303  1.00  0.00    +0.026 A 
ATOM     18  C   UNL     1     -28.196   8.461   7.096  1.00  0.00    +0.002 A 
ATOM     19  C   UNL     1     -26.065   7.627   6.348  1.00  0.00    +0.002 A 
ATOM     20  C   UNL     1     -27.099   8.554   6.245  1.00  0.00    +0.000 A 
ENDBRANCH  13  15
ENDBRANCH   4  13
BRANCH   8  21
ATOM     21  S   UNL     1     -22.696   0.697  10.553  1.00  0.00    +0.295 S 
ATOM     22  O   UNL     1     -22.333   1.919  11.238  1.00  0.00    -0.194 OA
ATOM     23  O   UNL     1     -22.332  -0.605  11.065  1.00  0.00    -0.194 OA
BRANCH  21  24
ATOM     24  O   UNL     1     -22.022   0.835   9.092  1.00  0.00    -0.282 OA
ATOM     25  H   UNL     1     -22.093  -0.040   8.657  1.00  0.00    +0.234 HD
ENDBRANCH  21  24
ENDBRANCH   8  21
TORSDOF 5
ENDMDL
MODEL 7
REMARK VINA RESULT:    -8.526      5.184      8.340
REMARK INTER + INTRA:         -10.940
REMARK INTER:                 -10.836
REMARK INTRA:                  -0.104
REMARK UNBOUND:                -0.420
REMARK SMILES O=S(=O)(O)c1ccc(O)c2cc(Nc3ccccc3)ccc12
REMARK SMILES IDX 8 1 10 2 11 3 12 4 20 5 21 6 22 7 5 8 6 9 7 10 9 11 13 13
REMARK SMILES IDX 14 15 15 16 19 17 16 18 18 19 17 20 2 21 1 22 3 23 4 24
REMARK H PARENT 9 12 13 14 4 25
ROOT
ATOM      1  C   UNL     1     -31.525   4.395   9.059  1.00  0.00    +0.123 A 
ATOM      2  C   UNL     1     -32.491   5.255   8.483  1.00  0.00    +0.027 A 
ATOM      3  C   UNL     1     -32.155   6.510   7.913  1.00  0.00    +0.038 A 
ATOM      4  C   UNL     1     -33.108   7.372   7.353  1.00  0.00    +0.039 A 
ATOM      5  C   UNL     1     -34.432   6.951   7.347  1.00  0.00    +0.027 A 
ATOM      6  C   UNL     1     -34.795   5.713   7.885  1.00  0.00    +0.012 A 
ATOM      7  C   UNL     1     -33.846   4.832   8.457  1.00  0.00    +0.007 A 
ATOM      8  C   UNL     1     -34.159   3.551   8.996  1.00  0.00    +0.102 A 
ATOM      9  C   UNL     1     -33.173   2.710   9.527  1.00  0.00    +0.027 A 
ATOM     10  C   UNL     1     -31.853   3.137   9.555  1.00  0.00    +0.048 A 
ENDROOT
BRANCH   1  11
ATOM     11  O   UNL     1     -30.201   4.731   9.181  1.00  0.00    -0.507 OA
ATOM     12  H   UNL     1     -29.794   4.715   8.301  1.00  0.00    +0.293 HD
ENDBRANCH   1  11
BRANCH   4  13
ATOM     13  N   UNL     1     -32.684   8.578   6.774  1.00  0.00    -0.356 N 
ATOM     14  H   UNL     1     -33.296   8.935   6.049  1.00  0.00    +0.167 HD
BRANCH  13  15
ATOM     15  C   UNL     1     -31.549   9.379   6.997  1.00  0.00    +0.038 A 
ATOM     16  C   UNL     1     -31.719  10.664   7.533  1.00  0.00    +0.026 A 
ATOM     17  C   UNL     1     -30.252   8.972   6.663  1.00  0.00    +0.026 A 
ATOM     18  C   UNL     1     -30.627  11.511   7.739  1.00  0.00    +0.002 A 
ATOM     19  C   UNL     1     -29.156   9.816   6.868  1.00  0.00    +0.002 A 
ATOM     20  C   UNL     1     -29.344  11.086   7.406  1.00  0.00    +0.000 A 
ENDBRANCH  13  15
ENDBRANCH   4  13
BRANCH   8  21
ATOM     21  S   UNL     1     -35.837   2.965   9.014  1.00  0.00    +0.295 S 
ATOM     22  O   UNL     1     -36.480   3.475  10.206  1.00  0.00    -0.194 OA
ATOM     23  O   UNL     1     -36.395   3.168   7.696  1.00  0.00    -0.194 OA
BRANCH  21  24
ATOM     24  O   UNL     1     -35.754   1.369   9.251  1.00  0.00    -0.282 OA
ATOM     25  H   UNL     1     -35.265   0.989   8.491  1.00  0.00    +0.234 HD
ENDBRANCH  21  24
ENDBRANCH   8  21
TORSDOF 5
ENDMDL
MODEL 8
REMARK VINA RESULT:    -8.365      9.133     11.512
REMARK INTER + INTRA:         -10.741
REMARK INTER:                 -10.327
REMARK INTRA:                  -0.414
REMARK UNBOUND:                -0.420
REMARK SMILES O=S(=O)(O)c1ccc(O)c2cc(Nc3ccccc3)ccc12
REMARK SMILES IDX 8 1 10 2 11 3 12 4 20 5 21 6 22 7 5 8 6 9 7 10 9 11 13 13
REMARK SMILES IDX 14 15 15 16 19 17 16 18 18 19 17 20 2 21 1 22 3 23 4 24
REMARK H PARENT 9 12 13 14 4 25
ROOT
ATOM      1  C   UNL     1     -29.688   1.033  13.986  1.00  0.00    +0.123 A 
ATOM      2  C   UNL     1     -28.959   1.317  12.806  1.00  0.00    +0.027 A 
ATOM      3  C   UNL     1     -27.587   1.681  12.824  1.00  0.00    +0.038 A 
ATOM      4  C   UNL     1     -26.862   1.976  11.661  1.00  0.00    +0.039 A 
ATOM      5  C   UNL     1     -27.528   1.881  10.446  1.00  0.00    +0.027 A 
ATOM      6  C   UNL     1     -28.875   1.509  10.391  1.00  0.00    +0.012 A 
ATOM      7  C   UNL     1     -29.623   1.211  11.556  1.00  0.00    +0.007 A 
ATOM      8  C   UNL     1     -30.988   0.805  11.554  1.00  0.00    +0.102 A 
ATOM      9  C   UNL     1     -31.671   0.498  12.737  1.00  0.00    +0.027 A 
ATOM     10  C   UNL     1     -31.014   0.613  13.954  1.00  0.00    +0.048 A 
ENDROOT
BRANCH   1  11
ATOM     11  O   UNL     1     -29.156   1.157  15.243  1.00  0.00    -0.507 OA
ATOM     12  H   UNL     1     -29.749   1.704  15.779  1.00  0.00    +0.293 HD
ENDBRANCH   1  11
BRANCH   4  13
ATOM     13  N   UNL     1     -25.497   2.288  11.766  1.00  0.00    -0.356 N 
ATOM     14  H   UNL     1     -25.299   3.145  12.268  1.00  0.00    +0.167 HD
BRANCH  13  15
ATOM     15  C   UNL     1     -24.347   1.641  11.280  1.00  0.00    +0.038 A 
ATOM     16  C   UNL     1     -24.385   0.254  11.072  1.00  0.00    +0.026 A 
ATOM     17  C   UNL     1     -23.141   2.309  11.038  1.00  0.00    +0.026 A 
ATOM     18  C   UNL     1     -23.257  -0.441  10.625  1.00  0.00    +0.002 A 
ATOM     19  C   UNL     1     -22.011   1.619  10.590  1.00  0.00    +0.002 A 
ATOM     20  C   UNL     1     -22.069   0.243  10.384  1.00  0.00    +0.000 A 
ENDBRANCH  13  15
ENDBRANCH   4  13
BRANCH   8  21
ATOM     21  S   UNL     1     -31.887   0.670  10.027  1.00  0.00    +0.295 S 
ATOM     22  O   UNL     1     -32.062   2.001   9.488  1.00  0.00    -0.194 OA
ATOM     23  O   UNL     1     -31.294  -0.397   9.252  1.00  0.00    -0.194 OA
BRANCH  21  24
ATOM     24  O   UNL     1     -33.378   0.193  10.422  1.00  0.00    -0.282 OA
ATOM     25  H   UNL     1     -33.991   0.911  10.158  1.00  0.00    +0.234 HD
ENDBRANCH  21  24
ENDBRANCH   8  21
TORSDOF 5
ENDMDL
MODEL 9
REMARK VINA RESULT:    -8.350      8.117     10.099
REMARK INTER + INTRA:         -10.723
REMARK INTER:                 -10.288
REMARK INTRA:                  -0.435
REMARK UNBOUND:                -0.420
REMARK SMILES O=S(=O)(O)c1ccc(O)c2cc(Nc3ccccc3)ccc12
REMARK SMILES IDX 8 1 10 2 11 3 12 4 20 5 21 6 22 7 5 8 6 9 7 10 9 11 13 13
REMARK SMILES IDX 14 15 15 16 19 17 16 18 18 19 17 20 2 21 1 22 3 23 4 24
REMARK H PARENT 9 12 13 14 4 25
ROOT
ATOM      1  C   UNL     1     -28.294   1.600  10.979  1.00  0.00    +0.123 A 
ATOM      2  C   UNL     1     -29.591   1.395  11.509  1.00  0.00    +0.027 A 
ATOM      3  C   UNL     1     -30.771   1.705  10.784  1.00  0.00    +0.038 A 
ATOM      4  C   UNL     1     -32.058   1.515  11.307  1.00  0.00    +0.039 A 
ATOM      5  C   UNL     1     -32.161   0.980  12.585  1.00  0.00    +0.027 A 
ATOM      6  C   UNL     1     -31.019   0.648  13.319  1.00  0.00    +0.012 A 
ATOM      7  C   UNL     1     -29.712   0.835  12.808  1.00  0.00    +0.007 A 
ATOM      8  C   UNL     1     -28.518   0.492  13.504  1.00  0.00    +0.102 A 
ATOM      9  C   UNL     1     -27.251   0.677  12.937  1.00  0.00    +0.027 A 
ATOM     10  C   UNL     1     -27.144   1.232  11.670  1.00  0.00    +0.048 A 
ENDROOT
BRANCH   1  11
ATOM     11  O   UNL     1     -28.068   2.182   9.758  1.00  0.00    -0.507 OA
ATOM     12  H   UNL     1     -28.272   3.127   9.822  1.00  0.00    +0.293 HD
ENDBRANCH   1  11
BRANCH   4  13
ATOM     13  N   UNL     1     -33.173   1.811  10.507  1.00  0.00    -0.356 N 
ATOM     14  H   UNL     1     -33.259   1.236   9.676  1.00  0.00    +0.167 HD
BRANCH  13  15
ATOM     15  C   UNL     1     -34.187   2.778  10.630  1.00  0.00    +0.038 A 
ATOM     16  C   UNL     1     -33.846   4.067  11.065  1.00  0.00    +0.026 A 
ATOM     17  C   UNL     1     -35.537   2.502  10.387  1.00  0.00    +0.026 A 
ATOM     18  C   UNL     1     -34.822   5.052  11.240  1.00  0.00    +0.002 A 
ATOM     19  C   UNL     1     -36.517   3.484  10.559  1.00  0.00    +0.002 A 
ATOM     20  C   UNL     1     -36.159   4.760  10.986  1.00  0.00    +0.000 A 
ENDBRANCH  13  15
ENDBRANCH   4  13
BRANCH   8  21
ATOM     21  S   UNL     1     -28.594  -0.195  15.142  1.00  0.00    +0.295 S 
ATOM     22  O   UNL     1     -29.007   0.853  16.050  1.00  0.00    -0.194 OA
ATOM     23  O   UNL     1     -29.290  -1.459  15.064  1.00  0.00    -0.194 OA
BRANCH  21  24
ATOM     24  O   UNL     1     -27.070  -0.520  15.565  1.00  0.00    -0.282 OA
ATOM     25  H   UNL     1     -26.489  -0.118  14.885  1.00  0.00    +0.234 HD
ENDBRANCH  21  24
ENDBRANCH   8  21
TORSDOF 5
ENDMDL
