REMARK SMILES Clc1cccc(Nc2ncnc3c2cnn3-c2ccccc2)c1
REMARK SMILES IDX 7 1 6 3 2 4 3 5 23 6 4 7 5 8 1 9 8 10 13 11 9 12 14 13 12 14
REMARK SMILES IDX 10 15 15 16 16 17 11 18 17 19 18 20 22 21 19 22 21 23 20 24
REMARK H PARENT 7 2
ROOT
ATOM      1  N   UNL     1      -2.610  -0.013  -1.494  1.00  0.00    -0.339 N 
ATOM      2  H   UNL     1      -3.129   0.545  -2.171  1.00  0.00    +0.168 HD
ENDROOT
BRANCH   1   3
ATOM      3  C   UNL     1      -3.435  -0.389  -0.413  1.00  0.00    +0.041 A 
ATOM      4  C   UNL     1      -5.399  -1.592   0.356  1.00  0.00    +0.043 A 
ATOM      5  C   UNL     1      -5.177  -1.157   1.660  1.00  0.00    +0.020 A 
ATOM      6  C   UNL     1      -4.541  -1.208  -0.675  1.00  0.00    +0.046 A 
ATOM      7  C   UNL     1      -4.092  -0.325   1.931  1.00  0.00    +0.004 A 
ATOM      8  C   UNL     1      -3.232   0.061   0.899  1.00  0.00    +0.026 A 
ATOM      9 Cl   UNL     1      -6.744  -2.610   0.014  1.00  0.00    -0.084 Cl
ENDBRANCH   1   3
BRANCH   1  10
ATOM     10  C   UNL     1      -1.307   0.504  -1.454  1.00  0.00    +0.144 A 
ATOM     11  C   UNL     1      -0.255  -0.021  -0.692  1.00  0.00    +0.082 A 
ATOM     12  N   UNL     1      -1.044   1.555  -2.265  1.00  0.00    -0.218 NA
ATOM     13  C   UNL     1      -0.055  -1.092   0.191  1.00  0.00    +0.150 A 
ATOM     14  C   UNL     1       0.983   0.598  -0.779  1.00  0.00    +0.168 A 
ATOM     15  C   UNL     1       0.197   2.073  -2.265  1.00  0.00    +0.226 A 
ATOM     16  N   UNL     1       1.186  -1.151   0.669  1.00  0.00    -0.174 NA
ATOM     17  N   UNL     1       1.839  -0.106   0.070  1.00  0.00    -0.215 N 
ATOM     18  N   UNL     1       1.258   1.669  -1.553  1.00  0.00    -0.216 NA
BRANCH  17  19
ATOM     19  C   UNL     1       3.219   0.122   0.363  1.00  0.00    +0.067 A 
ATOM     20  C   UNL     1       3.938   1.177  -0.212  1.00  0.00    +0.028 A 
ATOM     21  C   UNL     1       3.879  -0.739   1.259  1.00  0.00    +0.028 A 
ATOM     22  C   UNL     1       5.288   1.366   0.103  1.00  0.00    +0.002 A 
ATOM     23  C   UNL     1       5.228  -0.545   1.570  1.00  0.00    +0.002 A 
ATOM     24  C   UNL     1       5.932   0.507   0.992  1.00  0.00    +0.000 A 
ENDBRANCH  17  19
ENDBRANCH   1  10
TORSDOF 3
