REMARK SMILES NC(=S)NN=C1C(=O)Nc2ccccc21
REMARK SMILES IDX 5 1 6 2 7 3 8 4 9 5 10 6 15 7 14 8 13 9 12 10 11 11 4 13
REMARK SMILES IDX 1 14 2 15 3 16
REMARK H PARENT 9 12 1 17 1 18 4 19
ROOT
ATOM      1  N   UNL     1       1.499   0.200   0.061  1.00  0.00    -0.167 NA
ATOM      2  C   UNL     1       0.344  -0.386   0.115  1.00  0.00    +0.158 C 
ATOM      3  C   UNL     1       0.014  -1.821   0.545  1.00  0.00    +0.276 C 
ATOM      4  O   UNL     1       0.825  -2.645   0.909  1.00  0.00    -0.267 OA
ATOM      5  N   UNL     1      -1.353  -1.939   0.422  1.00  0.00    -0.320 N 
ATOM      6  C   UNL     1      -1.911  -0.748  -0.033  1.00  0.00    +0.051 A 
ATOM      7  C   UNL     1      -0.933   0.225  -0.236  1.00  0.00    +0.031 A 
ATOM      8  C   UNL     1      -1.233   1.494  -0.686  1.00  0.00    +0.013 A 
ATOM      9  C   UNL     1      -2.579   1.775  -0.937  1.00  0.00    +0.001 A 
ATOM     10  C   UNL     1      -3.572   0.794  -0.734  1.00  0.00    +0.002 A 
ATOM     11  C   UNL     1      -3.242  -0.487  -0.276  1.00  0.00    +0.027 A 
ATOM     12  H   UNL     1      -1.857  -2.787   0.640  1.00  0.00    +0.170 HD
ENDROOT
BRANCH   1  13
ATOM     13  N   UNL     1       2.576  -0.558   0.441  1.00  0.00    -0.253 N 
ATOM     14  N   UNL     1       3.950   1.243   0.036  1.00  0.00    -0.375 N 
ATOM     15  C   UNL     1       3.845  -0.051   0.424  1.00  0.00    +0.184 C 
ATOM     16  S   UNL     1       5.174  -0.945   0.853  1.00  0.00    -0.040 S 
ATOM     17  H   UNL     1       3.108   1.681  -0.316  1.00  0.00    +0.159 HD
ATOM     18  H   UNL     1       4.852   1.677  -0.089  1.00  0.00    +0.159 HD
ATOM     19  H   UNL     1       2.444  -1.530   0.735  1.00  0.00    +0.193 HD
ENDBRANCH   1  13
TORSDOF 1
