REMARK SMILES CC(=O)c1ccc(SSc2ccc(C(C)=O)cc2)cc1
REMARK SMILES IDX 8 1 7 2 4 3 5 4 20 5 6 6 19 7 2 8 3 9 1 10 9 11 10 12 11 13
REMARK SMILES IDX 18 14 12 15 17 16 13 17 14 18 16 19 15 20
REMARK H PARENT
ROOT
ATOM      1  S   UNL     1      -0.762  -3.017   1.280  1.00  0.00    -0.053 SA
ENDROOT
BRANCH   1   2
ATOM      2  C   UNL     1      -1.720  -1.539   1.009  1.00  0.00    +0.019 A 
ATOM      3  C   UNL     1      -3.219   0.801   0.577  1.00  0.00    +0.017 A 
ATOM      4  C   UNL     1      -3.704  -0.437   0.140  1.00  0.00    +0.013 A 
ATOM      5  C   UNL     1      -1.983   0.860   1.235  1.00  0.00    +0.013 A 
ATOM      6  C   UNL     1      -2.957  -1.601   0.358  1.00  0.00    +0.017 A 
ATOM      7  C   UNL     1      -1.240  -0.304   1.453  1.00  0.00    +0.017 A 
BRANCH   3   8
ATOM      8  C   UNL     1      -3.971   2.073   0.363  1.00  0.00    +0.159 C 
ATOM      9  O   UNL     1      -3.445   3.148   0.642  1.00  0.00    -0.295 OA
ATOM     10  C   UNL     1      -5.365   2.010  -0.205  1.00  0.00    +0.093 C 
ENDBRANCH   3   8
ENDBRANCH   1   2
BRANCH   1  11
ATOM     11  S   UNL     1       0.108  -3.287  -0.566  1.00  0.00    -0.053 SA
BRANCH  11  12
ATOM     12  C   UNL     1       1.482  -2.156  -0.486  1.00  0.00    +0.019 A 
ATOM     13  C   UNL     1       2.625  -2.470   0.254  1.00  0.00    +0.017 A 
ATOM     14  C   UNL     1       1.425  -0.940  -1.175  1.00  0.00    +0.017 A 
ATOM     15  C   UNL     1       3.695  -1.572   0.312  1.00  0.00    +0.013 A 
ATOM     16  C   UNL     1       2.494  -0.038  -1.117  1.00  0.00    +0.013 A 
ATOM     17  C   UNL     1       3.637  -0.350  -0.372  1.00  0.00    +0.017 A 
BRANCH  17  18
ATOM     18  C   UNL     1       4.805   0.576  -0.276  1.00  0.00    +0.159 C 
ATOM     19  O   UNL     1       5.771   0.270   0.420  1.00  0.00    -0.295 OA
ATOM     20  C   UNL     1       4.772   1.875  -1.038  1.00  0.00    +0.093 C 
ENDBRANCH  17  18
ENDBRANCH  11  12
ENDBRANCH   1  11
TORSDOF 5
