REMARK SMILES CCc1nc(S)c2cnn(-c3ccccc3)c2n1
REMARK SMILES IDX 3 1 4 2 5 3 7 4 8 5 9 6 10 7 17 8 18 9 2 10 1 11 6 12 11 14
REMARK SMILES IDX 12 15 16 16 13 17 15 18 14 19
REMARK H PARENT 6 13
ROOT
ATOM      1  C   UNL     1       2.333  -0.074  -0.457  1.00  0.00    +0.131 A 
ATOM      2  N   UNL     1       2.775  -1.114  -1.191  1.00  0.00    -0.226 NA
ATOM      3  C   UNL     1       1.872  -1.980  -1.694  1.00  0.00    +0.108 A 
ATOM      4  C   UNL     1       0.517  -1.783  -1.451  1.00  0.00    +0.071 A 
ATOM      5  C   UNL     1      -0.708  -2.388  -1.770  1.00  0.00    +0.149 A 
ATOM      6  N   UNL     1      -1.755  -1.755  -1.246  1.00  0.00    -0.174 NA
ATOM      7  N   UNL     1      -1.217  -0.695  -0.565  1.00  0.00    -0.215 N 
ATOM      8  C   UNL     1       0.175  -0.685  -0.676  1.00  0.00    +0.167 A 
ATOM      9  N   UNL     1       1.052   0.196  -0.153  1.00  0.00    -0.213 NA
ENDROOT
BRANCH   1  10
ATOM     10  C   UNL     1       3.377   0.852   0.107  1.00  0.00    +0.074 C 
ATOM     11  C   UNL     1       3.828   0.398   1.486  1.00  0.00    +0.012 C 
ENDBRANCH   1  10
BRANCH   3  12
ATOM     12  S   UNL     1       2.455  -3.338  -2.654  1.00  0.00    -0.123 SA
ATOM     13  H   UNL     1       1.378  -4.122  -2.526  1.00  0.00    +0.110 HD
ENDBRANCH   3  12
BRANCH   7  14
ATOM     14  C   UNL     1      -2.081   0.208   0.129  1.00  0.00    +0.067 A 
ATOM     15  C   UNL     1      -3.470  -0.011   0.093  1.00  0.00    +0.028 A 
ATOM     16  C   UNL     1      -1.589   1.306   0.845  1.00  0.00    +0.028 A 
ATOM     17  C   UNL     1      -4.344   0.852   0.760  1.00  0.00    +0.002 A 
ATOM     18  C   UNL     1      -2.469   2.166   1.511  1.00  0.00    +0.002 A 
ATOM     19  C   UNL     1      -3.843   1.940   1.469  1.00  0.00    +0.000 A 
ENDBRANCH   7  14
TORSDOF 3
