MODEL 1
REMARK VINA RESULT:   -10.226      0.000      0.000
REMARK INTER + INTRA:         -12.307
REMARK INTER:                 -11.720
REMARK INTRA:                  -0.586
REMARK UNBOUND:                -0.586
REMARK SMILES O=C(Nc1ccc2ccccc2c1)c1ccccc1O
REMARK SMILES IDX 19 1 14 2 15 3 16 4 17 5 18 6 20 7 2 9 1 10 3 11 4 13 13 14
REMARK SMILES IDX 5 15 12 16 6 17 7 18 11 19 8 20 10 21 9 22
REMARK H PARENT 20 8 3 12
ROOT
ATOM      1  C   UNL     1     -34.181   6.264   7.702  1.00  0.00    +0.128 A 
ATOM      2  C   UNL     1     -32.808   6.562   7.698  1.00  0.00    +0.081 A 
ATOM      3  C   UNL     1     -31.959   5.802   8.524  1.00  0.00    +0.018 A 
ATOM      4  C   UNL     1     -32.465   4.776   9.327  1.00  0.00    +0.001 A 
ATOM      5  C   UNL     1     -33.828   4.493   9.317  1.00  0.00    +0.004 A 
ATOM      6  C   UNL     1     -34.687   5.235   8.506  1.00  0.00    +0.047 A 
ENDROOT
BRANCH   1   7
ATOM      7  O   UNL     1     -35.059   6.970   6.920  1.00  0.00    -0.507 OA
ATOM      8  H   UNL     1     -34.659   7.832   6.703  1.00  0.00    +0.293 HD
ENDBRANCH   1   7
BRANCH   2   9
ATOM      9  C   UNL     1     -32.166   7.644   6.871  1.00  0.00    +0.259 C 
ATOM     10  O   UNL     1     -32.473   7.733   5.686  1.00  0.00    -0.269 OA
ATOM     11  N   UNL     1     -31.270   8.459   7.532  1.00  0.00    -0.322 N 
ATOM     12  H   UNL     1     -31.136   8.246   8.518  1.00  0.00    +0.170 HD
BRANCH  11  13
ATOM     13  C   UNL     1     -30.525   9.539   7.019  1.00  0.00    +0.042 A 
ATOM     14  C   UNL     1     -29.165   9.476   6.705  1.00  0.00    +0.034 A 
ATOM     15  C   UNL     1     -31.207  10.743   6.820  1.00  0.00    +0.027 A 
ATOM     16  C   UNL     1     -28.482  10.597   6.197  1.00  0.00    -0.016 A 
ATOM     17  C   UNL     1     -30.545  11.866   6.315  1.00  0.00    +0.011 A 
ATOM     18  C   UNL     1     -29.182  11.808   5.999  1.00  0.00    -0.018 A 
ATOM     19  C   UNL     1     -27.114  10.537   5.880  1.00  0.00    +0.009 A 
ATOM     20  C   UNL     1     -28.497  12.924   5.492  1.00  0.00    +0.009 A 
ATOM     21  C   UNL     1     -26.447  11.655   5.377  1.00  0.00    +0.001 A 
ATOM     22  C   UNL     1     -27.137  12.847   5.182  1.00  0.00    +0.001 A 
ENDBRANCH  11  13
ENDBRANCH   2   9
TORSDOF 3
ENDMDL
MODEL 2
REMARK VINA RESULT:    -9.842      6.441      7.590
REMARK INTER + INTRA:         -11.866
REMARK INTER:                 -11.394
REMARK INTRA:                  -0.473
REMARK UNBOUND:                -0.586
REMARK SMILES O=C(Nc1ccc2ccccc2c1)c1ccccc1O
REMARK SMILES IDX 19 1 14 2 15 3 16 4 17 5 18 6 20 7 2 9 1 10 3 11 4 13 13 14
REMARK SMILES IDX 5 15 12 16 6 17 7 18 11 19 8 20 10 21 9 22
REMARK H PARENT 20 8 3 12
ROOT
ATOM      1  C   UNL     1     -25.678   1.308   9.584  1.00  0.00    +0.128 A 
ATOM      2  C   UNL     1     -25.139   2.472  10.157  1.00  0.00    +0.081 A 
ATOM      3  C   UNL     1     -24.038   2.339  11.023  1.00  0.00    +0.018 A 
ATOM      4  C   UNL     1     -23.491   1.085  11.306  1.00  0.00    +0.001 A 
ATOM      5  C   UNL     1     -24.037  -0.058  10.728  1.00  0.00    +0.004 A 
ATOM      6  C   UNL     1     -25.129   0.051   9.868  1.00  0.00    +0.047 A 
ENDROOT
BRANCH   1   7
ATOM      7  O   UNL     1     -26.752   1.372   8.733  1.00  0.00    -0.507 OA
ATOM      8  H   UNL     1     -27.547   1.597   9.252  1.00  0.00    +0.293 HD
ENDBRANCH   1   7
BRANCH   2   9
ATOM      9  C   UNL     1     -25.653   3.866   9.916  1.00  0.00    +0.259 C 
ATOM     10  O   UNL     1     -26.113   4.491  10.867  1.00  0.00    -0.269 OA
ATOM     11  N   UNL     1     -25.559   4.330   8.620  1.00  0.00    -0.322 N 
ATOM     12  H   UNL     1     -25.147   3.679   7.955  1.00  0.00    +0.170 HD
BRANCH  11  13
ATOM     13  C   UNL     1     -25.958   5.579   8.105  1.00  0.00    +0.042 A 
ATOM     14  C   UNL     1     -27.252   6.093   8.206  1.00  0.00    +0.034 A 
ATOM     15  C   UNL     1     -24.980   6.338   7.453  1.00  0.00    +0.027 A 
ATOM     16  C   UNL     1     -27.581   7.351   7.666  1.00  0.00    -0.016 A 
ATOM     17  C   UNL     1     -25.289   7.589   6.912  1.00  0.00    +0.011 A 
ATOM     18  C   UNL     1     -26.586   8.109   7.011  1.00  0.00    -0.018 A 
ATOM     19  C   UNL     1     -28.883   7.871   7.765  1.00  0.00    +0.009 A 
ATOM     20  C   UNL     1     -26.917   9.363   6.473  1.00  0.00    +0.009 A 
ATOM     21  C   UNL     1     -29.197   9.120   7.226  1.00  0.00    +0.001 A 
ATOM     22  C   UNL     1     -28.216   9.866   6.581  1.00  0.00    +0.001 A 
ENDBRANCH  11  13
ENDBRANCH   2   9
TORSDOF 3
ENDMDL
MODEL 3
REMARK VINA RESULT:    -9.685      1.628      2.998
REMARK INTER + INTRA:         -11.687
REMARK INTER:                 -11.117
REMARK INTRA:                  -0.569
REMARK UNBOUND:                -0.586
REMARK SMILES O=C(Nc1ccc2ccccc2c1)c1ccccc1O
REMARK SMILES IDX 19 1 14 2 15 3 16 4 17 5 18 6 20 7 2 9 1 10 3 11 4 13 13 14
REMARK SMILES IDX 5 15 12 16 6 17 7 18 11 19 8 20 10 21 9 22
REMARK H PARENT 20 8 3 12
ROOT
ATOM      1  C   UNL     1     -35.799   5.672   8.721  1.00  0.00    +0.128 A 
ATOM      2  C   UNL     1     -34.842   5.275   7.773  1.00  0.00    +0.081 A 
ATOM      3  C   UNL     1     -34.798   3.919   7.399  1.00  0.00    +0.018 A 
ATOM      4  C   UNL     1     -35.682   2.990   7.954  1.00  0.00    +0.001 A 
ATOM      5  C   UNL     1     -36.625   3.402   8.891  1.00  0.00    +0.004 A 
ATOM      6  C   UNL     1     -36.685   4.741   9.276  1.00  0.00    +0.047 A 
ENDROOT
BRANCH   1   7
ATOM      7  O   UNL     1     -35.890   6.979   9.128  1.00  0.00    -0.507 OA
ATOM      8  H   UNL     1     -36.756   7.113   9.556  1.00  0.00    +0.293 HD
ENDBRANCH   1   7
BRANCH   2   9
ATOM      9  C   UNL     1     -33.847   6.195   7.118  1.00  0.00    +0.259 C 
ATOM     10  O   UNL     1     -33.897   6.338   5.900  1.00  0.00    -0.269 OA
ATOM     11  N   UNL     1     -32.947   6.813   7.962  1.00  0.00    -0.322 N 
ATOM     12  H   UNL     1     -33.050   6.584   8.948  1.00  0.00    +0.170 HD
BRANCH  11  13
ATOM     13  C   UNL     1     -31.914   7.713   7.635  1.00  0.00    +0.042 A 
ATOM     14  C   UNL     1     -32.120   9.045   7.267  1.00  0.00    +0.034 A 
ATOM     15  C   UNL     1     -30.605   7.224   7.688  1.00  0.00    +0.027 A 
ATOM     16  C   UNL     1     -31.039   9.889   6.951  1.00  0.00    -0.016 A 
ATOM     17  C   UNL     1     -29.520   8.048   7.379  1.00  0.00    +0.011 A 
ATOM     18  C   UNL     1     -29.721   9.384   7.008  1.00  0.00    -0.018 A 
ATOM     19  C   UNL     1     -31.242  11.229   6.580  1.00  0.00    +0.009 A 
ATOM     20  C   UNL     1     -28.645  10.229   6.693  1.00  0.00    +0.009 A 
ATOM     21  C   UNL     1     -30.162  12.057   6.269  1.00  0.00    +0.001 A 
ATOM     22  C   UNL     1     -28.865  11.558   6.326  1.00  0.00    +0.001 A 
ENDBRANCH  11  13
ENDBRANCH   2   9
TORSDOF 3
ENDMDL
MODEL 4
REMARK VINA RESULT:    -9.444      1.613      7.634
REMARK INTER + INTRA:         -11.410
REMARK INTER:                 -10.818
REMARK INTRA:                  -0.592
REMARK UNBOUND:                -0.586
REMARK SMILES O=C(Nc1ccc2ccccc2c1)c1ccccc1O
REMARK SMILES IDX 19 1 14 2 15 3 16 4 17 5 18 6 20 7 2 9 1 10 3 11 4 13 13 14
REMARK SMILES IDX 5 15 12 16 6 17 7 18 11 19 8 20 10 21 9 22
REMARK H PARENT 20 8 3 12
ROOT
ATOM      1  C   UNL     1     -30.516  11.348   6.221  1.00  0.00    +0.128 A 
ATOM      2  C   UNL     1     -30.332  10.073   6.781  1.00  0.00    +0.081 A 
ATOM      3  C   UNL     1     -29.016   9.595   6.931  1.00  0.00    +0.018 A 
ATOM      4  C   UNL     1     -27.921  10.367   6.537  1.00  0.00    +0.001 A 
ATOM      5  C   UNL     1     -28.122  11.629   5.986  1.00  0.00    +0.004 A 
ATOM      6  C   UNL     1     -29.417  12.121   5.827  1.00  0.00    +0.047 A 
ENDROOT
BRANCH   1   7
ATOM      7  O   UNL     1     -31.773  11.868   6.047  1.00  0.00    -0.507 OA
ATOM      8  H   UNL     1     -31.723  12.838   6.128  1.00  0.00    +0.293 HD
ENDBRANCH   1   7
BRANCH   2   9
ATOM      9  C   UNL     1     -31.443   9.166   7.236  1.00  0.00    +0.259 C 
ATOM     10  O   UNL     1     -32.289   9.618   8.003  1.00  0.00    -0.269 OA
ATOM     11  N   UNL     1     -31.414   7.878   6.742  1.00  0.00    -0.322 N 
ATOM     12  H   UNL     1     -30.642   7.672   6.113  1.00  0.00    +0.170 HD
BRANCH  11  13
ATOM     13  C   UNL     1     -32.312   6.821   6.994  1.00  0.00    +0.042 A 
ATOM     14  C   UNL     1     -32.337   6.079   8.177  1.00  0.00    +0.034 A 
ATOM     15  C   UNL     1     -33.228   6.512   5.984  1.00  0.00    +0.027 A 
ATOM     16  C   UNL     1     -33.263   5.034   8.361  1.00  0.00    -0.016 A 
ATOM     17  C   UNL     1     -34.154   5.478   6.150  1.00  0.00    +0.011 A 
ATOM     18  C   UNL     1     -34.183   4.730   7.334  1.00  0.00    -0.018 A 
ATOM     19  C   UNL     1     -33.291   4.284   9.549  1.00  0.00    +0.009 A 
ATOM     20  C   UNL     1     -35.105   3.687   7.521  1.00  0.00    +0.009 A 
ATOM     21  C   UNL     1     -34.214   3.250   9.720  1.00  0.00    +0.001 A 
ATOM     22  C   UNL     1     -35.120   2.952   8.708  1.00  0.00    +0.001 A 
ENDBRANCH  11  13
ENDBRANCH   2   9
TORSDOF 3
ENDMDL
MODEL 5
REMARK VINA RESULT:    -9.391      4.588      5.588
REMARK INTER + INTRA:         -11.350
REMARK INTER:                 -11.380
REMARK INTRA:                   0.030
REMARK UNBOUND:                -0.586
REMARK SMILES O=C(Nc1ccc2ccccc2c1)c1ccccc1O
REMARK SMILES IDX 19 1 14 2 15 3 16 4 17 5 18 6 20 7 2 9 1 10 3 11 4 13 13 14
REMARK SMILES IDX 5 15 12 16 6 17 7 18 11 19 8 20 10 21 9 22
REMARK H PARENT 20 8 3 12
ROOT
ATOM      1  C   UNL     1     -27.654   3.522   9.528  1.00  0.00    +0.128 A 
ATOM      2  C   UNL     1     -26.420   4.098   9.183  1.00  0.00    +0.081 A 
ATOM      3  C   UNL     1     -25.248   3.527   9.712  1.00  0.00    +0.018 A 
ATOM      4  C   UNL     1     -25.306   2.415  10.556  1.00  0.00    +0.001 A 
ATOM      5  C   UNL     1     -26.537   1.856  10.885  1.00  0.00    +0.004 A 
ATOM      6  C   UNL     1     -27.711   2.407  10.373  1.00  0.00    +0.047 A 
ENDROOT
BRANCH   1   7
ATOM      7  O   UNL     1     -28.832   4.034   9.046  1.00  0.00    -0.507 OA
ATOM      8  H   UNL     1     -29.273   3.350   8.510  1.00  0.00    +0.293 HD
ENDBRANCH   1   7
BRANCH   2   9
ATOM      9  C   UNL     1     -26.251   5.293   8.284  1.00  0.00    +0.259 C 
ATOM     10  O   UNL     1     -25.290   5.318   7.520  1.00  0.00    -0.269 OA
ATOM     11  N   UNL     1     -27.211   6.277   8.398  1.00  0.00    -0.322 N 
ATOM     12  H   UNL     1     -27.942   6.092   9.081  1.00  0.00    +0.170 HD
BRANCH  11  13
ATOM     13  C   UNL     1     -27.307   7.494   7.694  1.00  0.00    +0.042 A 
ATOM     14  C   UNL     1     -28.411   8.348   7.751  1.00  0.00    +0.034 A 
ATOM     15  C   UNL     1     -26.218   7.853   6.893  1.00  0.00    +0.027 A 
ATOM     16  C   UNL     1     -28.441   9.550   7.019  1.00  0.00    -0.016 A 
ATOM     17  C   UNL     1     -26.230   9.043   6.161  1.00  0.00    +0.011 A 
ATOM     18  C   UNL     1     -27.335   9.902   6.214  1.00  0.00    -0.018 A 
ATOM     19  C   UNL     1     -29.549  10.412   7.073  1.00  0.00    +0.009 A 
ATOM     20  C   UNL     1     -27.367  11.102   5.485  1.00  0.00    +0.009 A 
ATOM     21  C   UNL     1     -29.567  11.602   6.343  1.00  0.00    +0.001 A 
ATOM     22  C   UNL     1     -28.477  11.947   5.550  1.00  0.00    +0.001 A 
ENDBRANCH  11  13
ENDBRANCH   2   9
TORSDOF 3
ENDMDL
MODEL 6
REMARK VINA RESULT:    -9.004      1.848      2.875
REMARK INTER + INTRA:         -10.906
REMARK INTER:                 -10.310
REMARK INTRA:                  -0.596
REMARK UNBOUND:                -0.586
REMARK SMILES O=C(Nc1ccc2ccccc2c1)c1ccccc1O
REMARK SMILES IDX 19 1 14 2 15 3 16 4 17 5 18 6 20 7 2 9 1 10 3 11 4 13 13 14
REMARK SMILES IDX 5 15 12 16 6 17 7 18 11 19 8 20 10 21 9 22
REMARK H PARENT 20 8 3 12
ROOT
ATOM      1  C   UNL     1     -35.114   3.607   7.434  1.00  0.00    +0.128 A 
ATOM      2  C   UNL     1     -34.691   4.847   7.939  1.00  0.00    +0.081 A 
ATOM      3  C   UNL     1     -35.190   5.263   9.187  1.00  0.00    +0.018 A 
ATOM      4  C   UNL     1     -36.081   4.465   9.909  1.00  0.00    +0.001 A 
ATOM      5  C   UNL     1     -36.489   3.238   9.394  1.00  0.00    +0.004 A 
ATOM      6  C   UNL     1     -36.007   2.807   8.158  1.00  0.00    +0.047 A 
ENDROOT
BRANCH   1   7
ATOM      7  O   UNL     1     -34.665   3.148   6.222  1.00  0.00    -0.507 OA
ATOM      8  H   UNL     1     -35.161   3.599   5.514  1.00  0.00    +0.293 HD
ENDBRANCH   1   7
BRANCH   2   9
ATOM      9  C   UNL     1     -33.735   5.778   7.242  1.00  0.00    +0.259 C 
ATOM     10  O   UNL     1     -33.687   5.755   6.015  1.00  0.00    -0.269 OA
ATOM     11  N   UNL     1     -32.982   6.596   8.059  1.00  0.00    -0.322 N 
ATOM     12  H   UNL     1     -33.153   6.488   9.056  1.00  0.00    +0.170 HD
BRANCH  11  13
ATOM     13  C   UNL     1     -32.016   7.554   7.692  1.00  0.00    +0.042 A 
ATOM     14  C   UNL     1     -30.638   7.333   7.730  1.00  0.00    +0.034 A 
ATOM     15  C   UNL     1     -32.488   8.799   7.264  1.00  0.00    +0.027 A 
ATOM     16  C   UNL     1     -29.728   8.338   7.349  1.00  0.00    -0.016 A 
ATOM     17  C   UNL     1     -31.599   9.807   6.881  1.00  0.00    +0.011 A 
ATOM     18  C   UNL     1     -30.216   9.592   6.918  1.00  0.00    -0.018 A 
ATOM     19  C   UNL     1     -28.341   8.120   7.386  1.00  0.00    +0.009 A 
ATOM     20  C   UNL     1     -29.306  10.592   6.539  1.00  0.00    +0.009 A 
ATOM     21  C   UNL     1     -27.449   9.124   7.006  1.00  0.00    +0.001 A 
ATOM     22  C   UNL     1     -27.930  10.358   6.582  1.00  0.00    +0.001 A 
ENDBRANCH  11  13
ENDBRANCH   2   9
TORSDOF 3
ENDMDL
MODEL 7
REMARK VINA RESULT:    -8.296      1.676      2.511
REMARK INTER + INTRA:         -10.095
REMARK INTER:                  -9.929
REMARK INTRA:                  -0.165
REMARK UNBOUND:                -0.586
REMARK SMILES O=C(Nc1ccc2ccccc2c1)c1ccccc1O
REMARK SMILES IDX 19 1 14 2 15 3 16 4 17 5 18 6 20 7 2 9 1 10 3 11 4 13 13 14
REMARK SMILES IDX 5 15 12 16 6 17 7 18 11 19 8 20 10 21 9 22
REMARK H PARENT 20 8 3 12
ROOT
ATOM      1  C   UNL     1     -32.362   4.973   8.824  1.00  0.00    +0.128 A 
ATOM      2  C   UNL     1     -32.233   6.202   8.156  1.00  0.00    +0.081 A 
ATOM      3  C   UNL     1     -33.391   6.790   7.614  1.00  0.00    +0.018 A 
ATOM      4  C   UNL     1     -34.637   6.171   7.737  1.00  0.00    +0.001 A 
ATOM      5  C   UNL     1     -34.747   4.954   8.404  1.00  0.00    +0.004 A 
ATOM      6  C   UNL     1     -33.611   4.353   8.947  1.00  0.00    +0.047 A 
ENDROOT
BRANCH   1   7
ATOM      7  O   UNL     1     -31.269   4.349   9.372  1.00  0.00    -0.507 OA
ATOM      8  H   UNL     1     -30.598   5.024   9.583  1.00  0.00    +0.293 HD
ENDBRANCH   1   7
BRANCH   2   9
ATOM      9  C   UNL     1     -30.938   6.947   7.970  1.00  0.00    +0.259 C 
ATOM     10  O   UNL     1     -29.954   6.576   8.604  1.00  0.00    -0.269 OA
ATOM     11  N   UNL     1     -30.971   8.006   7.086  1.00  0.00    -0.322 N 
ATOM     12  H   UNL     1     -31.872   8.173   6.643  1.00  0.00    +0.170 HD
BRANCH  11  13
ATOM     13  C   UNL     1     -29.925   8.875   6.719  1.00  0.00    +0.042 A 
ATOM     14  C   UNL     1     -30.098  10.227   6.415  1.00  0.00    +0.034 A 
ATOM     15  C   UNL     1     -28.638   8.331   6.662  1.00  0.00    +0.027 A 
ATOM     16  C   UNL     1     -29.006  11.039   6.055  1.00  0.00    -0.016 A 
ATOM     17  C   UNL     1     -27.542   9.122   6.307  1.00  0.00    +0.011 A 
ATOM     18  C   UNL     1     -27.710  10.478   6.001  1.00  0.00    -0.018 A 
ATOM     19  C   UNL     1     -29.176  12.399   5.747  1.00  0.00    +0.009 A 
ATOM     20  C   UNL     1     -26.622  11.291   5.641  1.00  0.00    +0.009 A 
ATOM     21  C   UNL     1     -28.085  13.194   5.392  1.00  0.00    +0.001 A 
ATOM     22  C   UNL     1     -26.810  12.641   5.339  1.00  0.00    +0.001 A 
ENDBRANCH  11  13
ENDBRANCH   2   9
TORSDOF 3
ENDMDL
MODEL 8
REMARK VINA RESULT:    -8.262     10.203     13.225
REMARK INTER + INTRA:         -10.056
REMARK INTER:                  -9.498
REMARK INTRA:                  -0.558
REMARK UNBOUND:                -0.586
REMARK SMILES O=C(Nc1ccc2ccccc2c1)c1ccccc1O
REMARK SMILES IDX 19 1 14 2 15 3 16 4 17 5 18 6 20 7 2 9 1 10 3 11 4 13 13 14
REMARK SMILES IDX 5 15 12 16 6 17 7 18 11 19 8 20 10 21 9 22
REMARK H PARENT 20 8 3 12
ROOT
ATOM      1  C   UNL     1     -23.218  -0.442  10.443  1.00  0.00    +0.128 A 
ATOM      2  C   UNL     1     -24.444   0.234  10.329  1.00  0.00    +0.081 A 
ATOM      3  C   UNL     1     -24.444   1.637  10.440  1.00  0.00    +0.018 A 
ATOM      4  C   UNL     1     -23.257   2.342  10.659  1.00  0.00    +0.001 A 
ATOM      5  C   UNL     1     -22.051   1.655  10.768  1.00  0.00    +0.004 A 
ATOM      6  C   UNL     1     -22.029   0.265  10.661  1.00  0.00    +0.047 A 
ENDROOT
BRANCH   1   7
ATOM      7  O   UNL     1     -23.154  -1.809  10.345  1.00  0.00    -0.507 OA
ATOM      8  H   UNL     1     -22.298  -2.053   9.947  1.00  0.00    +0.293 HD
ENDBRANCH   1   7
BRANCH   2   9
ATOM      9  C   UNL     1     -25.774  -0.431  10.094  1.00  0.00    +0.259 C 
ATOM     10  O   UNL     1     -25.899  -1.156   9.111  1.00  0.00    -0.269 OA
ATOM     11  N   UNL     1     -26.757  -0.163  11.023  1.00  0.00    -0.322 N 
ATOM     12  H   UNL     1     -26.481   0.458  11.780  1.00  0.00    +0.170 HD
BRANCH  11  13
ATOM     13  C   UNL     1     -28.084  -0.637  11.059  1.00  0.00    +0.042 A 
ATOM     14  C   UNL     1     -28.549  -1.600  11.957  1.00  0.00    +0.034 A 
ATOM     15  C   UNL     1     -28.976  -0.098  10.126  1.00  0.00    +0.027 A 
ATOM     16  C   UNL     1     -29.889  -2.030  11.935  1.00  0.00    -0.016 A 
ATOM     17  C   UNL     1     -30.310  -0.512  10.091  1.00  0.00    +0.011 A 
ATOM     18  C   UNL     1     -30.782  -1.478  10.989  1.00  0.00    -0.018 A 
ATOM     19  C   UNL     1     -30.362  -2.998  12.837  1.00  0.00    +0.009 A 
ATOM     20  C   UNL     1     -32.118  -1.909  10.970  1.00  0.00    +0.009 A 
ATOM     21  C   UNL     1     -31.693  -3.416  12.806  1.00  0.00    +0.001 A 
ATOM     22  C   UNL     1     -32.571  -2.872  11.874  1.00  0.00    +0.001 A 
ENDBRANCH  11  13
ENDBRANCH   2   9
TORSDOF 3
ENDMDL
MODEL 9
REMARK VINA RESULT:    -8.226      9.033     11.781
REMARK INTER + INTRA:         -10.014
REMARK INTER:                  -9.465
REMARK INTRA:                  -0.550
REMARK UNBOUND:                -0.586
REMARK SMILES O=C(Nc1ccc2ccccc2c1)c1ccccc1O
REMARK SMILES IDX 19 1 14 2 15 3 16 4 17 5 18 6 20 7 2 9 1 10 3 11 4 13 13 14
REMARK SMILES IDX 5 15 12 16 6 17 7 18 11 19 8 20 10 21 9 22
REMARK H PARENT 20 8 3 12
ROOT
ATOM      1  C   UNL     1     -23.584  -0.470  10.560  1.00  0.00    +0.128 A 
ATOM      2  C   UNL     1     -24.582   0.461  10.891  1.00  0.00    +0.081 A 
ATOM      3  C   UNL     1     -24.200   1.800  11.100  1.00  0.00    +0.018 A 
ATOM      4  C   UNL     1     -22.866   2.195  10.979  1.00  0.00    +0.001 A 
ATOM      5  C   UNL     1     -21.890   1.259  10.648  1.00  0.00    +0.004 A 
ATOM      6  C   UNL     1     -22.246  -0.073  10.439  1.00  0.00    +0.047 A 
ENDROOT
BRANCH   1   7
ATOM      7  O   UNL     1     -23.892  -1.790  10.347  1.00  0.00    -0.507 OA
ATOM      8  H   UNL     1     -23.090  -2.324  10.491  1.00  0.00    +0.293 HD
ENDBRANCH   1   7
BRANCH   2   9
ATOM      9  C   UNL     1     -26.043   0.137  11.044  1.00  0.00    +0.259 C 
ATOM     10  O   UNL     1     -26.399  -1.031  10.917  1.00  0.00    -0.269 OA
ATOM     11  N   UNL     1     -26.874   1.203  11.321  1.00  0.00    -0.322 N 
ATOM     12  H   UNL     1     -26.411   2.106  11.398  1.00  0.00    +0.170 HD
BRANCH  11  13
ATOM     13  C   UNL     1     -28.270   1.201  11.511  1.00  0.00    +0.042 A 
ATOM     14  C   UNL     1     -29.196   1.571  10.534  1.00  0.00    +0.034 A 
ATOM     15  C   UNL     1     -28.739   0.799  12.766  1.00  0.00    +0.027 A 
ATOM     16  C   UNL     1     -30.580   1.546  10.793  1.00  0.00    -0.016 A 
ATOM     17  C   UNL     1     -30.109   0.768  13.041  1.00  0.00    +0.011 A 
ATOM     18  C   UNL     1     -31.042   1.139  12.064  1.00  0.00    -0.018 A 
ATOM     19  C   UNL     1     -31.514   1.918   9.813  1.00  0.00    +0.009 A 
ATOM     20  C   UNL     1     -32.423   1.115  12.320  1.00  0.00    +0.009 A 
ATOM     21  C   UNL     1     -32.883   1.889  10.082  1.00  0.00    +0.001 A 
ATOM     22  C   UNL     1     -33.338   1.488  11.333  1.00  0.00    +0.001 A 
ENDBRANCH  11  13
ENDBRANCH   2   9
TORSDOF 3
ENDMDL
