REMARK SMILES CCNc1nc(C)nc2c1cnn2-c1ccccc1
REMARK SMILES IDX 3 1 2 3 1 4 4 5 10 6 5 7 11 8 9 9 6 10 12 11 13 12 8 13 7 14
REMARK SMILES IDX 14 15 15 16 19 17 16 18 18 19 17 20
REMARK H PARENT 3 2
ROOT
ATOM      1  N   UNL     1      -3.276  -0.334   0.278  1.00  0.00    -0.370 N 
ATOM      2  H   UNL     1      -3.322  -1.335   0.126  1.00  0.00    +0.162 HD
ENDROOT
BRANCH   1   3
ATOM      3  C   UNL     1      -4.331   0.432  -0.371  1.00  0.00    +0.111 C 
ATOM      4  C   UNL     1      -5.673  -0.234  -0.106  1.00  0.00    +0.027 C 
ENDBRANCH   1   3
BRANCH   1   5
ATOM      5  C   UNL     1      -1.982   0.168   0.119  1.00  0.00    +0.140 A 
ATOM      6  C   UNL     1      -0.846  -0.618   0.348  1.00  0.00    +0.082 A 
ATOM      7  N   UNL     1      -1.786   1.454  -0.254  1.00  0.00    -0.216 NA
ATOM      8  C   UNL     1      -0.570  -1.932   0.751  1.00  0.00    +0.150 A 
ATOM      9  C   UNL     1       0.399  -0.036   0.168  1.00  0.00    +0.168 A 
ATOM     10  C   UNL     1      -0.531   1.926  -0.406  1.00  0.00    +0.130 A 
ATOM     11  N   UNL     1       0.734  -2.199   0.811  1.00  0.00    -0.174 NA
ATOM     12  N   UNL     1       1.343  -1.023   0.457  1.00  0.00    -0.215 N 
ATOM     13  N   UNL     1       0.608   1.241  -0.211  1.00  0.00    -0.213 NA
ATOM     14  C   UNL     1      -0.397   3.368  -0.789  1.00  0.00    +0.090 C 
BRANCH  12  15
ATOM     15  C   UNL     1       2.771  -0.953   0.426  1.00  0.00    +0.067 A 
ATOM     16  C   UNL     1       3.451   0.219   0.071  1.00  0.00    +0.028 A 
ATOM     17  C   UNL     1       3.519  -2.095   0.762  1.00  0.00    +0.028 A 
ATOM     18  C   UNL     1       4.850   0.246   0.052  1.00  0.00    +0.002 A 
ATOM     19  C   UNL     1       4.916  -2.062   0.742  1.00  0.00    +0.002 A 
ATOM     20  C   UNL     1       5.581  -0.892   0.387  1.00  0.00    +0.000 A 
ENDBRANCH  12  15
ENDBRANCH   1   5
TORSDOF 3
