REMARK SMILES NC(=S)NN=Cc1ccnc2ccccc12
REMARK SMILES IDX 1 1 2 2 3 3 4 4 5 8 6 9 7 10 16 11 8 12 15 13 11 14 9 15
REMARK SMILES IDX 14 16 12 17 10 18 13 19
REMARK H PARENT 1 5 1 6 4 7
ROOT
ATOM      1  N   UNL     1       4.030   0.608  -0.016  1.00  0.00    -0.375 N 
ATOM      2  C   UNL     1       2.941   0.469   0.801  1.00  0.00    +0.184 C 
ATOM      3  S   UNL     1       2.160   1.835   1.343  1.00  0.00    -0.040 S 
ATOM      4  N   UNL     1       2.653  -0.865   1.056  1.00  0.00    -0.254 N 
ATOM      5  H   UNL     1       4.220  -0.120  -0.692  1.00  0.00    +0.159 HD
ATOM      6  H   UNL     1       4.211   1.553  -0.338  1.00  0.00    +0.159 HD
ATOM      7  H   UNL     1       3.514  -1.389   1.196  1.00  0.00    +0.193 HD
ENDROOT
BRANCH   4   8
ATOM      8  N   UNL     1       1.699  -1.231   1.970  1.00  0.00    -0.181 NA
ATOM      9  C   UNL     1       0.449  -1.183   1.606  1.00  0.00    +0.142 C 
BRANCH   9  10
ATOM     10  C   UNL     1      -0.114  -0.944   0.260  1.00  0.00    +0.005 A 
ATOM     11  C   UNL     1      -1.208  -0.067   0.082  1.00  0.00    +0.009 A 
ATOM     12  C   UNL     1       0.403  -1.671  -0.809  1.00  0.00    +0.030 A 
ATOM     13  C   UNL     1      -1.793   0.716   1.110  1.00  0.00    +0.011 A 
ATOM     14  C   UNL     1      -1.722   0.032  -1.227  1.00  0.00    +0.071 A 
ATOM     15  C   UNL     1      -0.180  -1.491  -2.043  1.00  0.00    +0.112 A 
ATOM     16  C   UNL     1      -2.869   1.562   0.846  1.00  0.00    +0.001 A 
ATOM     17  C   UNL     1      -2.796   0.881  -1.461  1.00  0.00    +0.029 A 
ATOM     18  N   UNL     1      -1.221  -0.663  -2.264  1.00  0.00    -0.256 NA
ATOM     19  C   UNL     1      -3.374   1.642  -0.443  1.00  0.00    +0.002 A 
ENDBRANCH   9  10
ENDBRANCH   4   8
TORSDOF 2
