MODEL 1
REMARK VINA RESULT:   -10.148      0.000      0.000
REMARK INTER + INTRA:         -12.919
REMARK INTER:                 -12.521
REMARK INTRA:                  -0.399
REMARK UNBOUND:                -0.399
REMARK SMILES CCc1nc(Nc2ccc(C)cc2)c2cnn(-c3ccccc3)c2n1
REMARK SMILES IDX 3 1 4 2 5 3 14 4 15 5 16 6 17 7 24 8 25 9 2 10 1 11 6 12
REMARK SMILES IDX 7 14 8 15 13 16 9 17 12 18 10 19 11 20 18 21 19 22 23 23
REMARK SMILES IDX 20 24 22 25 21 26
REMARK H PARENT 6 13
ROOT
ATOM      1  C   UNL     1     -28.968   6.851   8.159  1.00  0.00    +0.133 A 
ATOM      2  N   UNL     1     -28.067   5.879   8.417  1.00  0.00    -0.215 NA
ATOM      3  C   UNL     1     -26.770   6.071   8.088  1.00  0.00    +0.145 A 
ATOM      4  C   UNL     1     -26.422   7.267   7.451  1.00  0.00    +0.082 A 
ATOM      5  C   UNL     1     -25.269   7.848   6.902  1.00  0.00    +0.150 A 
ATOM      6  N   UNL     1     -25.486   9.062   6.398  1.00  0.00    -0.174 NA
ATOM      7  N   UNL     1     -26.822   9.288   6.602  1.00  0.00    -0.215 N 
ATOM      8  C   UNL     1     -27.423   8.198   7.237  1.00  0.00    +0.168 A 
ATOM      9  N   UNL     1     -28.715   8.039   7.586  1.00  0.00    -0.213 NA
ENDROOT
BRANCH   1  10
ATOM     10  C   UNL     1     -30.388   6.591   8.588  1.00  0.00    +0.074 C 
ATOM     11  C   UNL     1     -31.374   7.340   7.709  1.00  0.00    +0.012 C 
ENDBRANCH   1  10
BRANCH   3  12
ATOM     12  N   UNL     1     -25.883   5.019   8.366  1.00  0.00    -0.340 N 
ATOM     13  H   UNL     1     -25.686   4.562   7.477  1.00  0.00    +0.168 HD
BRANCH  12  14
ATOM     14  C   UNL     1     -25.972   4.067   9.402  1.00  0.00    +0.040 A 
ATOM     15  C   UNL     1     -26.500   2.805   9.101  1.00  0.00    +0.026 A 
ATOM     16  C   UNL     1     -25.640   4.349  10.731  1.00  0.00    +0.026 A 
ATOM     17  C   UNL     1     -26.647   1.831  10.094  1.00  0.00    +0.005 A 
ATOM     18  C   UNL     1     -25.786   3.377  11.726  1.00  0.00    +0.005 A 
ATOM     19  C   UNL     1     -26.274   2.105  11.412  1.00  0.00    -0.051 A 
ATOM     20  C   UNL     1     -26.460   1.074  12.485  1.00  0.00    +0.044 C 
ENDBRANCH  12  14
ENDBRANCH   3  12
BRANCH   7  21
ATOM     21  C   UNL     1     -27.400  10.522   6.172  1.00  0.00    +0.067 A 
ATOM     22  C   UNL     1     -28.726  10.865   6.466  1.00  0.00    +0.028 A 
ATOM     23  C   UNL     1     -26.615  11.424   5.432  1.00  0.00    +0.028 A 
ATOM     24  C   UNL     1     -29.253  12.085   6.028  1.00  0.00    +0.002 A 
ATOM     25  C   UNL     1     -27.147  12.640   4.997  1.00  0.00    +0.002 A 
ATOM     26  C   UNL     1     -28.465  12.970   5.294  1.00  0.00    +0.000 A 
ENDBRANCH   7  21
TORSDOF 4
ENDMDL
MODEL 2
REMARK VINA RESULT:    -9.618      5.192      8.291
REMARK INTER + INTRA:         -12.266
REMARK INTER:                 -11.503
REMARK INTRA:                  -0.763
REMARK UNBOUND:                -0.399
REMARK SMILES CCc1nc(Nc2ccc(C)cc2)c2cnn(-c3ccccc3)c2n1
REMARK SMILES IDX 3 1 4 2 5 3 14 4 15 5 16 6 17 7 24 8 25 9 2 10 1 11 6 12
REMARK SMILES IDX 7 14 8 15 13 16 9 17 12 18 10 19 11 20 18 21 19 22 23 23
REMARK SMILES IDX 20 24 22 25 21 26
REMARK H PARENT 6 13
ROOT
ATOM      1  C   UNL     1     -31.983   5.001   9.020  1.00  0.00    +0.133 A 
ATOM      2  N   UNL     1     -31.204   3.922   9.247  1.00  0.00    -0.215 NA
ATOM      3  C   UNL     1     -31.766   2.782   9.707  1.00  0.00    +0.145 A 
ATOM      4  C   UNL     1     -33.140   2.784   9.967  1.00  0.00    +0.082 A 
ATOM      5  C   UNL     1     -34.096   1.894  10.480  1.00  0.00    +0.150 A 
ATOM      6  N   UNL     1     -35.324   2.410  10.516  1.00  0.00    -0.174 NA
ATOM      7  N   UNL     1     -35.178   3.683  10.029  1.00  0.00    -0.215 N 
ATOM      8  C   UNL     1     -33.847   3.942   9.695  1.00  0.00    +0.168 A 
ATOM      9  N   UNL     1     -33.311   5.078   9.207  1.00  0.00    -0.213 NA
ENDROOT
BRANCH   1  10
ATOM     10  C   UNL     1     -31.301   6.226   8.469  1.00  0.00    +0.074 C 
ATOM     11  C   UNL     1     -32.163   6.910   7.421  1.00  0.00    +0.012 C 
ENDBRANCH   1  10
BRANCH   3  12
ATOM     12  N   UNL     1     -30.904   1.699   9.940  1.00  0.00    -0.340 N 
ATOM     13  H   UNL     1     -31.336   0.885   9.504  1.00  0.00    +0.168 HD
BRANCH  12  14
ATOM     14  C   UNL     1     -30.281   1.338  11.153  1.00  0.00    +0.040 A 
ATOM     15  C   UNL     1     -31.053   0.701  12.132  1.00  0.00    +0.026 A 
ATOM     16  C   UNL     1     -28.955   1.660  11.457  1.00  0.00    +0.026 A 
ATOM     17  C   UNL     1     -30.501   0.351  13.368  1.00  0.00    +0.005 A 
ATOM     18  C   UNL     1     -28.399   1.311  12.692  1.00  0.00    +0.005 A 
ATOM     19  C   UNL     1     -29.163   0.639  13.651  1.00  0.00    -0.051 A 
ATOM     20  C   UNL     1     -28.576   0.293  14.987  1.00  0.00    +0.044 C 
ENDBRANCH  12  14
ENDBRANCH   3  12
BRANCH   7  21
ATOM     21  C   UNL     1     -36.323   4.533   9.930  1.00  0.00    +0.067 A 
ATOM     22  C   UNL     1     -37.424   4.206   9.128  1.00  0.00    +0.028 A 
ATOM     23  C   UNL     1     -36.349   5.734  10.661  1.00  0.00    +0.028 A 
ATOM     24  C   UNL     1     -38.527   5.065   9.060  1.00  0.00    +0.002 A 
ATOM     25  C   UNL     1     -37.453   6.587  10.588  1.00  0.00    +0.002 A 
ATOM     26  C   UNL     1     -38.541   6.254   9.788  1.00  0.00    +0.000 A 
ENDBRANCH   7  21
TORSDOF 4
ENDMDL
MODEL 3
REMARK VINA RESULT:    -9.303      1.467      8.111
REMARK INTER + INTRA:         -11.878
REMARK INTER:                 -11.731
REMARK INTRA:                  -0.146
REMARK UNBOUND:                -0.399
REMARK SMILES CCc1nc(Nc2ccc(C)cc2)c2cnn(-c3ccccc3)c2n1
REMARK SMILES IDX 3 1 4 2 5 3 14 4 15 5 16 6 17 7 24 8 25 9 2 10 1 11 6 12
REMARK SMILES IDX 7 14 8 15 13 16 9 17 12 18 10 19 11 20 18 21 19 22 23 23
REMARK SMILES IDX 20 24 22 25 21 26
REMARK H PARENT 6 13
ROOT
ATOM      1  C   UNL     1     -29.441   5.622   8.714  1.00  0.00    +0.133 A 
ATOM      2  N   UNL     1     -28.763   6.671   8.198  1.00  0.00    -0.215 NA
ATOM      3  C   UNL     1     -27.423   6.584   8.044  1.00  0.00    +0.145 A 
ATOM      4  C   UNL     1     -26.785   5.413   8.467  1.00  0.00    +0.082 A 
ATOM      5  C   UNL     1     -25.473   4.924   8.553  1.00  0.00    +0.150 A 
ATOM      6  N   UNL     1     -25.408   3.689   9.048  1.00  0.00    -0.174 NA
ATOM      7  N   UNL     1     -26.710   3.354   9.315  1.00  0.00    -0.215 N 
ATOM      8  C   UNL     1     -27.575   4.397   8.978  1.00  0.00    +0.168 A 
ATOM      9  N   UNL     1     -28.915   4.452   9.111  1.00  0.00    -0.213 NA
ENDROOT
BRANCH   1  10
ATOM     10  C   UNL     1     -30.936   5.768   8.819  1.00  0.00    +0.074 C 
ATOM     11  C   UNL     1     -31.426   6.977   8.041  1.00  0.00    +0.012 C 
ENDBRANCH   1  10
BRANCH   3  12
ATOM     12  N   UNL     1     -26.771   7.711   7.518  1.00  0.00    -0.340 N 
ATOM     13  H   UNL     1     -26.010   7.931   8.158  1.00  0.00    +0.168 HD
BRANCH  12  14
ATOM     14  C   UNL     1     -27.358   8.894   7.023  1.00  0.00    +0.040 A 
ATOM     15  C   UNL     1     -26.698   9.585   6.000  1.00  0.00    +0.026 A 
ATOM     16  C   UNL     1     -28.521   9.454   7.561  1.00  0.00    +0.026 A 
ATOM     17  C   UNL     1     -27.212  10.782   5.492  1.00  0.00    +0.005 A 
ATOM     18  C   UNL     1     -29.038  10.650   7.055  1.00  0.00    +0.005 A 
ATOM     19  C   UNL     1     -28.397  11.315   6.005  1.00  0.00    -0.051 A 
ATOM     20  C   UNL     1     -28.935  12.615   5.485  1.00  0.00    +0.044 C 
ENDBRANCH  12  14
ENDBRANCH   3  12
BRANCH   7  21
ATOM     21  C   UNL     1     -27.006   2.069   9.867  1.00  0.00    +0.067 A 
ATOM     22  C   UNL     1     -27.864   1.910  10.962  1.00  0.00    +0.028 A 
ATOM     23  C   UNL     1     -26.420   0.926   9.293  1.00  0.00    +0.028 A 
ATOM     24  C   UNL     1     -28.129   0.634  11.471  1.00  0.00    +0.002 A 
ATOM     25  C   UNL     1     -26.688  -0.345   9.806  1.00  0.00    +0.002 A 
ATOM     26  C   UNL     1     -27.542  -0.491  10.895  1.00  0.00    +0.000 A 
ENDBRANCH   7  21
TORSDOF 4
ENDMDL
MODEL 4
REMARK VINA RESULT:    -9.303      5.238      9.844
REMARK INTER + INTRA:         -11.877
REMARK INTER:                 -11.218
REMARK INTRA:                  -0.659
REMARK UNBOUND:                -0.399
REMARK SMILES CCc1nc(Nc2ccc(C)cc2)c2cnn(-c3ccccc3)c2n1
REMARK SMILES IDX 3 1 4 2 5 3 14 4 15 5 16 6 17 7 24 8 25 9 2 10 1 11 6 12
REMARK SMILES IDX 7 14 8 15 13 16 9 17 12 18 10 19 11 20 18 21 19 22 23 23
REMARK SMILES IDX 20 24 22 25 21 26
REMARK H PARENT 6 13
ROOT
ATOM      1  C   UNL     1     -32.235   4.148   9.180  1.00  0.00    +0.133 A 
ATOM      2  N   UNL     1     -31.735   5.063   8.321  1.00  0.00    -0.215 NA
ATOM      3  C   UNL     1     -32.572   5.949   7.734  1.00  0.00    +0.145 A 
ATOM      4  C   UNL     1     -33.938   5.851   8.016  1.00  0.00    +0.082 A 
ATOM      5  C   UNL     1     -35.124   6.484   7.615  1.00  0.00    +0.150 A 
ATOM      6  N   UNL     1     -36.207   5.993   8.217  1.00  0.00    -0.174 NA
ATOM      7  N   UNL     1     -35.731   4.995   9.026  1.00  0.00    -0.215 N 
ATOM      8  C   UNL     1     -34.344   4.879   8.915  1.00  0.00    +0.168 A 
ATOM      9  N   UNL     1     -33.523   4.008   9.534  1.00  0.00    -0.213 NA
ENDROOT
BRANCH   1  10
ATOM     10  C   UNL     1     -31.245   3.219   9.831  1.00  0.00    +0.074 C 
ATOM     11  C   UNL     1     -31.888   1.888  10.179  1.00  0.00    +0.012 C 
ENDBRANCH   1  10
BRANCH   3  12
ATOM     12  N   UNL     1     -31.998   6.865   6.839  1.00  0.00    -0.340 N 
ATOM     13  H   UNL     1     -31.324   6.344   6.281  1.00  0.00    +0.168 HD
BRANCH  12  14
ATOM     14  C   UNL     1     -31.510   8.158   7.123  1.00  0.00    +0.040 A 
ATOM     15  C   UNL     1     -32.401   9.106   7.639  1.00  0.00    +0.026 A 
ATOM     16  C   UNL     1     -30.202   8.561   6.836  1.00  0.00    +0.026 A 
ATOM     17  C   UNL     1     -31.985  10.414   7.908  1.00  0.00    +0.005 A 
ATOM     18  C   UNL     1     -29.782   9.868   7.103  1.00  0.00    +0.005 A 
ATOM     19  C   UNL     1     -30.665  10.800   7.657  1.00  0.00    -0.051 A 
ATOM     20  C   UNL     1     -30.223  12.210   7.914  1.00  0.00    +0.044 C 
ENDBRANCH  12  14
ENDBRANCH   3  12
BRANCH   7  21
ATOM     21  C   UNL     1     -36.645   4.245   9.829  1.00  0.00    +0.067 A 
ATOM     22  C   UNL     1     -37.639   4.864  10.598  1.00  0.00    +0.028 A 
ATOM     23  C   UNL     1     -36.547   2.842   9.849  1.00  0.00    +0.028 A 
ATOM     24  C   UNL     1     -38.516   4.093  11.369  1.00  0.00    +0.002 A 
ATOM     25  C   UNL     1     -37.425   2.079  10.622  1.00  0.00    +0.002 A 
ATOM     26  C   UNL     1     -38.409   2.703  11.382  1.00  0.00    +0.000 A 
ENDBRANCH   7  21
TORSDOF 4
ENDMDL
MODEL 5
REMARK VINA RESULT:    -9.228      3.143      4.367
REMARK INTER + INTRA:         -11.784
REMARK INTER:                 -11.510
REMARK INTRA:                  -0.275
REMARK UNBOUND:                -0.399
REMARK SMILES CCc1nc(Nc2ccc(C)cc2)c2cnn(-c3ccccc3)c2n1
REMARK SMILES IDX 3 1 4 2 5 3 14 4 15 5 16 6 17 7 24 8 25 9 2 10 1 11 6 12
REMARK SMILES IDX 7 14 8 15 13 16 9 17 12 18 10 19 11 20 18 21 19 22 23 23
REMARK SMILES IDX 20 24 22 25 21 26
REMARK H PARENT 6 13
ROOT
ATOM      1  C   UNL     1     -31.959   7.440   6.783  1.00  0.00    +0.133 A 
ATOM      2  N   UNL     1     -31.802   6.366   7.587  1.00  0.00    -0.215 NA
ATOM      3  C   UNL     1     -30.639   6.205   8.258  1.00  0.00    +0.145 A 
ATOM      4  C   UNL     1     -29.626   7.148   8.057  1.00  0.00    +0.082 A 
ATOM      5  C   UNL     1     -28.301   7.346   8.475  1.00  0.00    +0.150 A 
ATOM      6  N   UNL     1     -27.757   8.455   7.975  1.00  0.00    -0.174 NA
ATOM      7  N   UNL     1     -28.740   9.000   7.191  1.00  0.00    -0.215 N 
ATOM      8  C   UNL     1     -29.893   8.213   7.215  1.00  0.00    +0.168 A 
ATOM      9  N   UNL     1     -31.056   8.409   6.561  1.00  0.00    -0.213 NA
ENDROOT
BRANCH   1  10
ATOM     10  C   UNL     1     -33.292   7.583   6.097  1.00  0.00    +0.074 C 
ATOM     11  C   UNL     1     -33.703   6.286   5.419  1.00  0.00    +0.012 C 
ENDBRANCH   1  10
BRANCH   3  12
ATOM     12  N   UNL     1     -30.527   5.062   9.066  1.00  0.00    -0.340 N 
ATOM     13  H   UNL     1     -29.781   4.496   8.666  1.00  0.00    +0.168 HD
BRANCH  12  14
ATOM     14  C   UNL     1     -31.568   4.240   9.546  1.00  0.00    +0.040 A 
ATOM     15  C   UNL     1     -31.371   2.854   9.553  1.00  0.00    +0.026 A 
ATOM     16  C   UNL     1     -32.816   4.736   9.936  1.00  0.00    +0.026 A 
ATOM     17  C   UNL     1     -32.379   1.986   9.984  1.00  0.00    +0.005 A 
ATOM     18  C   UNL     1     -33.826   3.871  10.368  1.00  0.00    +0.005 A 
ATOM     19  C   UNL     1     -33.610   2.490  10.411  1.00  0.00    -0.051 A 
ATOM     20  C   UNL     1     -34.704   1.561  10.844  1.00  0.00    +0.044 C 
ENDBRANCH  12  14
ENDBRANCH   3  12
BRANCH   7  21
ATOM     21  C   UNL     1     -28.485  10.221   6.493  1.00  0.00    +0.067 A 
ATOM     22  C   UNL     1     -29.392  11.288   6.507  1.00  0.00    +0.028 A 
ATOM     23  C   UNL     1     -27.288  10.358   5.769  1.00  0.00    +0.028 A 
ATOM     24  C   UNL     1     -29.104  12.468   5.811  1.00  0.00    +0.002 A 
ATOM     25  C   UNL     1     -27.006  11.538   5.076  1.00  0.00    +0.002 A 
ATOM     26  C   UNL     1     -27.913  12.592   5.097  1.00  0.00    +0.000 A 
ENDBRANCH   7  21
TORSDOF 4
ENDMDL
MODEL 6
REMARK VINA RESULT:    -9.031      1.962      8.336
REMARK INTER + INTRA:         -11.541
REMARK INTER:                 -11.523
REMARK INTRA:                  -0.018
REMARK UNBOUND:                -0.399
REMARK SMILES CCc1nc(Nc2ccc(C)cc2)c2cnn(-c3ccccc3)c2n1
REMARK SMILES IDX 3 1 4 2 5 3 14 4 15 5 16 6 17 7 24 8 25 9 2 10 1 11 6 12
REMARK SMILES IDX 7 14 8 15 13 16 9 17 12 18 10 19 11 20 18 21 19 22 23 23
REMARK SMILES IDX 20 24 22 25 21 26
REMARK H PARENT 6 13
ROOT
ATOM      1  C   UNL     1     -25.435   6.437   8.057  1.00  0.00    +0.133 A 
ATOM      2  N   UNL     1     -26.701   6.877   7.888  1.00  0.00    -0.215 NA
ATOM      3  C   UNL     1     -27.731   6.124   8.335  1.00  0.00    +0.145 A 
ATOM      4  C   UNL     1     -27.437   4.890   8.925  1.00  0.00    +0.082 A 
ATOM      5  C   UNL     1     -28.149   3.803   9.455  1.00  0.00    +0.150 A 
ATOM      6  N   UNL     1     -27.356   2.836   9.916  1.00  0.00    -0.174 NA
ATOM      7  N   UNL     1     -26.084   3.284   9.670  1.00  0.00    -0.215 N 
ATOM      8  C   UNL     1     -26.105   4.537   9.053  1.00  0.00    +0.168 A 
ATOM      9  N   UNL     1     -25.063   5.287   8.643  1.00  0.00    -0.213 NA
ENDROOT
BRANCH   1  10
ATOM     10  C   UNL     1     -24.333   7.343   7.575  1.00  0.00    +0.074 C 
ATOM     11  C   UNL     1     -24.781   8.162   6.376  1.00  0.00    +0.012 C 
ENDBRANCH   1  10
BRANCH   3  12
ATOM     12  N   UNL     1     -29.024   6.624   8.116  1.00  0.00    -0.340 N 
ATOM     13  H   UNL     1     -29.520   5.921   7.572  1.00  0.00    +0.168 HD
BRANCH  12  14
ATOM     14  C   UNL     1     -29.387   7.921   7.695  1.00  0.00    +0.040 A 
ATOM     15  C   UNL     1     -30.710   8.143   7.296  1.00  0.00    +0.026 A 
ATOM     16  C   UNL     1     -28.471   8.971   7.576  1.00  0.00    +0.026 A 
ATOM     17  C   UNL     1     -31.121   9.398   6.835  1.00  0.00    +0.005 A 
ATOM     18  C   UNL     1     -28.879  10.227   7.115  1.00  0.00    +0.005 A 
ATOM     19  C   UNL     1     -30.211  10.455   6.757  1.00  0.00    -0.051 A 
ATOM     20  C   UNL     1     -30.640  11.793   6.233  1.00  0.00    +0.044 C 
ENDBRANCH  12  14
ENDBRANCH   3  12
BRANCH   7  21
ATOM     21  C   UNL     1     -24.969   2.474  10.047  1.00  0.00    +0.067 A 
ATOM     22  C   UNL     1     -23.892   2.987  10.781  1.00  0.00    +0.028 A 
ATOM     23  C   UNL     1     -24.950   1.118   9.673  1.00  0.00    +0.028 A 
ATOM     24  C   UNL     1     -22.819   2.159  11.132  1.00  0.00    +0.002 A 
ATOM     25  C   UNL     1     -23.877   0.298  10.026  1.00  0.00    +0.002 A 
ATOM     26  C   UNL     1     -22.811   0.818  10.754  1.00  0.00    +0.000 A 
ENDBRANCH   7  21
TORSDOF 4
ENDMDL
MODEL 7
REMARK VINA RESULT:    -8.824      2.289      7.836
REMARK INTER + INTRA:         -11.286
REMARK INTER:                 -10.747
REMARK INTRA:                  -0.539
REMARK UNBOUND:                -0.399
REMARK SMILES CCc1nc(Nc2ccc(C)cc2)c2cnn(-c3ccccc3)c2n1
REMARK SMILES IDX 3 1 4 2 5 3 14 4 15 5 16 6 17 7 24 8 25 9 2 10 1 11 6 12
REMARK SMILES IDX 7 14 8 15 13 16 9 17 12 18 10 19 11 20 18 21 19 22 23 23
REMARK SMILES IDX 20 24 22 25 21 26
REMARK H PARENT 6 13
ROOT
ATOM      1  C   UNL     1     -26.053   7.316   7.497  1.00  0.00    +0.133 A 
ATOM      2  N   UNL     1     -27.246   7.938   7.386  1.00  0.00    -0.215 NA
ATOM      3  C   UNL     1     -28.354   7.342   7.880  1.00  0.00    +0.145 A 
ATOM      4  C   UNL     1     -28.219   6.074   8.456  1.00  0.00    +0.082 A 
ATOM      5  C   UNL     1     -29.058   5.100   9.019  1.00  0.00    +0.150 A 
ATOM      6  N   UNL     1     -28.396   4.024   9.442  1.00  0.00    -0.174 NA
ATOM      7  N   UNL     1     -27.085   4.282   9.138  1.00  0.00    -0.215 N 
ATOM      8  C   UNL     1     -26.949   5.528   8.523  1.00  0.00    +0.168 A 
ATOM      9  N   UNL     1     -25.828   6.119   8.065  1.00  0.00    -0.213 NA
ENDROOT
BRANCH   1  10
ATOM     10  C   UNL     1     -24.852   8.052   6.964  1.00  0.00    +0.074 C 
ATOM     11  C   UNL     1     -25.217   9.466   6.546  1.00  0.00    +0.012 C 
ENDBRANCH   1  10
BRANCH   3  12
ATOM     12  N   UNL     1     -29.568   8.029   7.722  1.00  0.00    -0.340 N 
ATOM     13  H   UNL     1     -29.793   8.435   8.629  1.00  0.00    +0.168 HD
BRANCH  12  14
ATOM     14  C   UNL     1     -30.739   7.574   7.081  1.00  0.00    +0.040 A 
ATOM     15  C   UNL     1     -30.960   7.955   5.752  1.00  0.00    +0.026 A 
ATOM     16  C   UNL     1     -31.730   6.833   7.733  1.00  0.00    +0.026 A 
ATOM     17  C   UNL     1     -32.119   7.564   5.074  1.00  0.00    +0.005 A 
ATOM     18  C   UNL     1     -32.890   6.441   7.059  1.00  0.00    +0.005 A 
ATOM     19  C   UNL     1     -33.086   6.789   5.719  1.00  0.00    -0.051 A 
ATOM     20  C   UNL     1     -34.345   6.395   5.006  1.00  0.00    +0.044 C 
ENDBRANCH  12  14
ENDBRANCH   3  12
BRANCH   7  21
ATOM     21  C   UNL     1     -26.085   3.314   9.463  1.00  0.00    +0.067 A 
ATOM     22  C   UNL     1     -24.877   3.669  10.076  1.00  0.00    +0.028 A 
ATOM     23  C   UNL     1     -26.319   1.960   9.160  1.00  0.00    +0.028 A 
ATOM     24  C   UNL     1     -23.925   2.690  10.379  1.00  0.00    +0.002 A 
ATOM     25  C   UNL     1     -25.364   0.987   9.465  1.00  0.00    +0.002 A 
ATOM     26  C   UNL     1     -24.168   1.352  10.074  1.00  0.00    +0.000 A 
ENDBRANCH   7  21
TORSDOF 4
ENDMDL
MODEL 8
REMARK VINA RESULT:    -8.587      7.477     11.804
REMARK INTER + INTRA:         -10.993
REMARK INTER:                 -10.386
REMARK INTRA:                  -0.607
REMARK UNBOUND:                -0.399
REMARK SMILES CCc1nc(Nc2ccc(C)cc2)c2cnn(-c3ccccc3)c2n1
REMARK SMILES IDX 3 1 4 2 5 3 14 4 15 5 16 6 17 7 24 8 25 9 2 10 1 11 6 12
REMARK SMILES IDX 7 14 8 15 13 16 9 17 12 18 10 19 11 20 18 21 19 22 23 23
REMARK SMILES IDX 20 24 22 25 21 26
REMARK H PARENT 6 13
ROOT
ATOM      1  C   UNL     1     -33.725   2.052  11.137  1.00  0.00    +0.133 A 
ATOM      2  N   UNL     1     -33.274   3.260  10.733  1.00  0.00    -0.215 NA
ATOM      3  C   UNL     1     -34.161   4.205  10.348  1.00  0.00    +0.145 A 
ATOM      4  C   UNL     1     -35.520   3.872  10.349  1.00  0.00    +0.082 A 
ATOM      5  C   UNL     1     -36.733   4.482   9.994  1.00  0.00    +0.150 A 
ATOM      6  N   UNL     1     -37.791   3.699  10.205  1.00  0.00    -0.174 NA
ATOM      7  N   UNL     1     -37.266   2.533  10.697  1.00  0.00    -0.215 N 
ATOM      8  C   UNL     1     -35.874   2.608  10.786  1.00  0.00    +0.168 A 
ATOM      9  N   UNL     1     -35.009   1.663  11.203  1.00  0.00    -0.213 NA
ENDROOT
BRANCH   1  10
ATOM     10  C   UNL     1     -32.688   1.060  11.592  1.00  0.00    +0.074 C 
ATOM     11  C   UNL     1     -32.818  -0.254  10.840  1.00  0.00    +0.012 C 
ENDBRANCH   1  10
BRANCH   3  12
ATOM     12  N   UNL     1     -33.634   5.434   9.924  1.00  0.00    -0.340 N 
ATOM     13  H   UNL     1     -34.157   6.159  10.411  1.00  0.00    +0.168 HD
BRANCH  12  14
ATOM     14  C   UNL     1     -33.343   5.838   8.604  1.00  0.00    +0.040 A 
ATOM     15  C   UNL     1     -32.137   6.506   8.364  1.00  0.00    +0.026 A 
ATOM     16  C   UNL     1     -34.238   5.679   7.541  1.00  0.00    +0.026 A 
ATOM     17  C   UNL     1     -31.809   6.962   7.083  1.00  0.00    +0.005 A 
ATOM     18  C   UNL     1     -33.914   6.134   6.259  1.00  0.00    +0.005 A 
ATOM     19  C   UNL     1     -32.689   6.764   6.016  1.00  0.00    -0.051 A 
ATOM     20  C   UNL     1     -32.356   7.279   4.648  1.00  0.00    +0.044 C 
ENDBRANCH  12  14
ENDBRANCH   3  12
BRANCH   7  21
ATOM     21  C   UNL     1     -38.143   1.456  11.036  1.00  0.00    +0.067 A 
ATOM     22  C   UNL     1     -37.814   0.120  10.776  1.00  0.00    +0.028 A 
ATOM     23  C   UNL     1     -39.374   1.744  11.652  1.00  0.00    +0.028 A 
ATOM     24  C   UNL     1     -38.701  -0.906  11.125  1.00  0.00    +0.002 A 
ATOM     25  C   UNL     1     -40.254   0.716  11.998  1.00  0.00    +0.002 A 
ATOM     26  C   UNL     1     -39.918  -0.608  11.735  1.00  0.00    +0.000 A 
ENDBRANCH   7  21
TORSDOF 4
ENDMDL
