MODEL 1
REMARK VINA RESULT:    -9.361      0.000      0.000
REMARK INTER + INTRA:          -9.361
REMARK INTER:                  -9.361
REMARK INTRA:                   0.000
REMARK UNBOUND:                 0.000
REMARK SMILES Clc1c2c(nc3ccccc13)CCCC2
REMARK SMILES IDX 1 1 2 2 3 3 15 4 14 5 13 6 12 7 4 8 5 9 6 10 11 11 10 12
REMARK SMILES IDX 9 13 8 14 7 15
REMARK H PARENT
ROOT
ATOM      1 Cl   UNL     1     -29.728   8.613   7.429  1.00  0.00    -0.083 Cl
ATOM      2  C   UNL     1     -28.178   9.146   6.834  1.00  0.00    +0.055 A 
ATOM      3  C   UNL     1     -27.075   8.283   6.941  1.00  0.00    -0.007 A 
ATOM      4  C   UNL     1     -27.181   6.916   7.574  1.00  0.00    +0.039 C 
ATOM      5  C   UNL     1     -25.964   6.021   7.336  1.00  0.00    +0.005 C 
ATOM      6  C   UNL     1     -24.675   6.798   7.554  1.00  0.00    +0.007 C 
ATOM      7  C   UNL     1     -24.592   7.945   6.553  1.00  0.00    +0.056 C 
ATOM      8  C   UNL     1     -25.850   8.774   6.496  1.00  0.00    +0.046 A 
ATOM      9  N   UNL     1     -25.704  10.001   5.943  1.00  0.00    -0.252 NA
ATOM     10  C   UNL     1     -26.769  10.806   5.831  1.00  0.00    +0.072 A 
ATOM     11  C   UNL     1     -28.053  10.438   6.265  1.00  0.00    +0.019 A 
ATOM     12  C   UNL     1     -29.116  11.370   6.106  1.00  0.00    +0.012 A 
ATOM     13  C   UNL     1     -28.903  12.622   5.532  1.00  0.00    +0.001 A 
ATOM     14  C   UNL     1     -27.630  12.968   5.108  1.00  0.00    +0.002 A 
ATOM     15  C   UNL     1     -26.581  12.060   5.262  1.00  0.00    +0.029 A 
ENDROOT
TORSDOF 0
ENDMDL
MODEL 2
REMARK VINA RESULT:    -9.115      2.003      5.204
REMARK INTER + INTRA:          -9.115
REMARK INTER:                  -9.115
REMARK INTRA:                   0.000
REMARK UNBOUND:                 0.000
REMARK SMILES Clc1c2c(nc3ccccc13)CCCC2
REMARK SMILES IDX 1 1 2 2 3 3 15 4 14 5 13 6 12 7 4 8 5 9 6 10 11 11 10 12
REMARK SMILES IDX 9 13 8 14 7 15
REMARK H PARENT
ROOT
ATOM      1 Cl   UNL     1     -26.412  11.757   5.486  1.00  0.00    -0.083 Cl
ATOM      2  C   UNL     1     -27.264  10.414   6.201  1.00  0.00    +0.055 A 
ATOM      3  C   UNL     1     -28.636  10.545   6.470  1.00  0.00    -0.007 A 
ATOM      4  C   UNL     1     -29.395  11.818   6.182  1.00  0.00    +0.039 C 
ATOM      5  C   UNL     1     -30.915  11.673   6.265  1.00  0.00    +0.005 C 
ATOM      6  C   UNL     1     -31.311  10.884   7.503  1.00  0.00    +0.007 C 
ATOM      7  C   UNL     1     -30.729   9.478   7.424  1.00  0.00    +0.056 C 
ATOM      8  C   UNL     1     -29.260   9.463   7.086  1.00  0.00    +0.046 A 
ATOM      9  N   UNL     1     -28.614   8.311   7.384  1.00  0.00    -0.252 NA
ATOM     10  C   UNL     1     -27.309   8.193   7.104  1.00  0.00    +0.072 A 
ATOM     11  C   UNL     1     -26.561   9.222   6.507  1.00  0.00    +0.019 A 
ATOM     12  C   UNL     1     -25.179   8.998   6.258  1.00  0.00    +0.012 A 
ATOM     13  C   UNL     1     -24.568   7.790   6.590  1.00  0.00    +0.001 A 
ATOM     14  C   UNL     1     -25.321   6.785   7.177  1.00  0.00    +0.002 A 
ATOM     15  C   UNL     1     -26.678   6.998   7.427  1.00  0.00    +0.029 A 
ENDROOT
TORSDOF 0
ENDMDL
MODEL 3
REMARK VINA RESULT:    -8.971      1.884      2.807
REMARK INTER + INTRA:          -8.971
REMARK INTER:                  -8.971
REMARK INTRA:                   0.000
REMARK UNBOUND:                 0.000
REMARK SMILES Clc1c2c(nc3ccccc13)CCCC2
REMARK SMILES IDX 1 1 2 2 3 3 15 4 14 5 13 6 12 7 4 8 5 9 6 10 11 11 10 12
REMARK SMILES IDX 9 13 8 14 7 15
REMARK H PARENT
ROOT
ATOM      1 Cl   UNL     1     -25.532  11.033   5.715  1.00  0.00    -0.083 Cl
ATOM      2  C   UNL     1     -26.756   9.998   6.400  1.00  0.00    +0.055 A 
ATOM      3  C   UNL     1     -26.388   8.724   6.864  1.00  0.00    -0.007 A 
ATOM      4  C   UNL     1     -24.971   8.212   6.769  1.00  0.00    +0.039 C 
ATOM      5  C   UNL     1     -24.709   6.943   7.582  1.00  0.00    +0.005 C 
ATOM      6  C   UNL     1     -25.833   5.938   7.386  1.00  0.00    +0.007 C 
ATOM      7  C   UNL     1     -27.145   6.531   7.887  1.00  0.00    +0.056 C 
ATOM      8  C   UNL     1     -27.410   7.917   7.357  1.00  0.00    +0.046 A 
ATOM      9  N   UNL     1     -28.698   8.326   7.439  1.00  0.00    -0.252 NA
ATOM     10  C   UNL     1     -29.031   9.551   7.009  1.00  0.00    +0.072 A 
ATOM     11  C   UNL     1     -28.097  10.449   6.468  1.00  0.00    +0.019 A 
ATOM     12  C   UNL     1     -28.556  11.724   6.035  1.00  0.00    +0.012 A 
ATOM     13  C   UNL     1     -29.897  12.087   6.141  1.00  0.00    +0.001 A 
ATOM     14  C   UNL     1     -30.805  11.189   6.679  1.00  0.00    +0.002 A 
ATOM     15  C   UNL     1     -30.363   9.935   7.105  1.00  0.00    +0.029 A 
ENDROOT
TORSDOF 0
ENDMDL
MODEL 4
REMARK VINA RESULT:    -8.857      0.455      4.749
REMARK INTER + INTRA:          -8.857
REMARK INTER:                  -8.857
REMARK INTRA:                   0.000
REMARK UNBOUND:                 0.000
REMARK SMILES Clc1c2c(nc3ccccc13)CCCC2
REMARK SMILES IDX 1 1 2 2 3 3 15 4 14 5 13 6 12 7 4 8 5 9 6 10 11 11 10 12
REMARK SMILES IDX 9 13 8 14 7 15
REMARK H PARENT
ROOT
ATOM      1 Cl   UNL     1     -29.945   8.438   7.487  1.00  0.00    -0.083 Cl
ATOM      2  C   UNL     1     -28.329   8.910   7.031  1.00  0.00    +0.055 A 
ATOM      3  C   UNL     1     -28.128  10.171   6.447  1.00  0.00    -0.007 A 
ATOM      4  C   UNL     1     -29.267  11.125   6.180  1.00  0.00    +0.039 C 
ATOM      5  C   UNL     1     -28.824  12.543   5.819  1.00  0.00    +0.005 C 
ATOM      6  C   UNL     1     -27.686  12.509   4.811  1.00  0.00    +0.007 C 
ATOM      7  C   UNL     1     -26.481  11.803   5.421  1.00  0.00    +0.056 C 
ATOM      8  C   UNL     1     -26.828  10.481   6.056  1.00  0.00    +0.046 A 
ATOM      9  N   UNL     1     -25.780   9.647   6.254  1.00  0.00    -0.252 NA
ATOM     10  C   UNL     1     -25.984   8.454   6.830  1.00  0.00    +0.072 A 
ATOM     11  C   UNL     1     -27.252   8.014   7.245  1.00  0.00    +0.019 A 
ATOM     12  C   UNL     1     -27.361   6.727   7.839  1.00  0.00    +0.012 A 
ATOM     13  C   UNL     1     -26.245   5.911   8.014  1.00  0.00    +0.001 A 
ATOM     14  C   UNL     1     -25.002   6.361   7.600  1.00  0.00    +0.002 A 
ATOM     15  C   UNL     1     -24.886   7.622   7.014  1.00  0.00    +0.029 A 
ENDROOT
TORSDOF 0
ENDMDL
MODEL 5
REMARK VINA RESULT:    -8.829      1.343      4.732
REMARK INTER + INTRA:          -8.829
REMARK INTER:                  -8.829
REMARK INTRA:                   0.000
REMARK UNBOUND:                 0.000
REMARK SMILES Clc1c2c(nc3ccccc13)CCCC2
REMARK SMILES IDX 1 1 2 2 3 3 15 4 14 5 13 6 12 7 4 8 5 9 6 10 11 11 10 12
REMARK SMILES IDX 9 13 8 14 7 15
REMARK H PARENT
ROOT
ATOM      1 Cl   UNL     1     -29.643   7.011   8.082  1.00  0.00    -0.083 Cl
ATOM      2  C   UNL     1     -28.705   8.317   7.408  1.00  0.00    +0.055 A 
ATOM      3  C   UNL     1     -29.345   9.532   7.114  1.00  0.00    -0.007 A 
ATOM      4  C   UNL     1     -30.824   9.739   7.341  1.00  0.00    +0.039 C 
ATOM      5  C   UNL     1     -31.274  11.197   7.242  1.00  0.00    +0.005 C 
ATOM      6  C   UNL     1     -30.649  11.870   6.030  1.00  0.00    +0.007 C 
ATOM      7  C   UNL     1     -29.131  11.877   6.173  1.00  0.00    +0.056 C 
ATOM      8  C   UNL     1     -28.564  10.528   6.532  1.00  0.00    +0.046 A 
ATOM      9  N   UNL     1     -27.240  10.378   6.290  1.00  0.00    -0.252 NA
ATOM     10  C   UNL     1     -26.639   9.219   6.593  1.00  0.00    +0.072 A 
ATOM     11  C   UNL     1     -27.323   8.131   7.159  1.00  0.00    +0.019 A 
ATOM     12  C   UNL     1     -26.593   6.943   7.436  1.00  0.00    +0.012 A 
ATOM     13  C   UNL     1     -25.230   6.847   7.161  1.00  0.00    +0.001 A 
ATOM     14  C   UNL     1     -24.571   7.931   6.603  1.00  0.00    +0.002 A 
ATOM     15  C   UNL     1     -25.281   9.101   6.326  1.00  0.00    +0.029 A 
ENDROOT
TORSDOF 0
ENDMDL
MODEL 6
REMARK VINA RESULT:    -7.965      3.773      6.214
REMARK INTER + INTRA:          -7.965
REMARK INTER:                  -7.965
REMARK INTRA:                   0.000
REMARK UNBOUND:                 0.000
REMARK SMILES Clc1c2c(nc3ccccc13)CCCC2
REMARK SMILES IDX 1 1 2 2 3 3 15 4 14 5 13 6 12 7 4 8 5 9 6 10 11 11 10 12
REMARK SMILES IDX 9 13 8 14 7 15
REMARK H PARENT
ROOT
ATOM      1 Cl   UNL     1     -28.299   7.289   8.222  1.00  0.00    -0.083 Cl
ATOM      2  C   UNL     1     -29.782   8.029   7.681  1.00  0.00    +0.055 A 
ATOM      3  C   UNL     1     -29.735   9.316   7.122  1.00  0.00    -0.007 A 
ATOM      4  C   UNL     1     -28.446  10.091   6.992  1.00  0.00    +0.039 C 
ATOM      5  C   UNL     1     -28.548  11.331   6.103  1.00  0.00    +0.005 C 
ATOM      6  C   UNL     1     -29.810  12.117   6.421  1.00  0.00    +0.007 C 
ATOM      7  C   UNL     1     -31.036  11.256   6.135  1.00  0.00    +0.056 C 
ATOM      8  C   UNL     1     -30.952   9.883   6.750  1.00  0.00    +0.046 A 
ATOM      9  N   UNL     1     -32.135   9.234   6.869  1.00  0.00    -0.252 NA
ATOM     10  C   UNL     1     -32.162   7.999   7.388  1.00  0.00    +0.072 A 
ATOM     11  C   UNL     1     -31.006   7.329   7.824  1.00  0.00    +0.019 A 
ATOM     12  C   UNL     1     -31.145   6.022   8.366  1.00  0.00    +0.012 A 
ATOM     13  C   UNL     1     -32.391   5.406   8.467  1.00  0.00    +0.001 A 
ATOM     14  C   UNL     1     -33.521   6.081   8.031  1.00  0.00    +0.002 A 
ATOM     15  C   UNL     1     -33.393   7.365   7.499  1.00  0.00    +0.029 A 
ENDROOT
TORSDOF 0
ENDMDL
MODEL 7
REMARK VINA RESULT:    -7.826      2.362      4.756
REMARK INTER + INTRA:          -7.826
REMARK INTER:                  -7.826
REMARK INTRA:                   0.000
REMARK UNBOUND:                 0.000
REMARK SMILES Clc1c2c(nc3ccccc13)CCCC2
REMARK SMILES IDX 1 1 2 2 3 3 15 4 14 5 13 6 12 7 4 8 5 9 6 10 11 11 10 12
REMARK SMILES IDX 9 13 8 14 7 15
REMARK H PARENT
ROOT
ATOM      1 Cl   UNL     1     -31.411  11.848   6.141  1.00  0.00    -0.083 Cl
ATOM      2  C   UNL     1     -30.125  10.716   6.465  1.00  0.00    +0.055 A 
ATOM      3  C   UNL     1     -28.807  11.072   6.136  1.00  0.00    -0.007 A 
ATOM      4  C   UNL     1     -28.467  12.395   5.491  1.00  0.00    +0.039 C 
ATOM      5  C   UNL     1     -26.973  12.720   5.481  1.00  0.00    +0.005 C 
ATOM      6  C   UNL     1     -26.162  11.504   5.059  1.00  0.00    +0.007 C 
ATOM      7  C   UNL     1     -26.370  10.376   6.062  1.00  0.00    +0.056 C 
ATOM      8  C   UNL     1     -27.822  10.115   6.369  1.00  0.00    +0.046 A 
ATOM      9  N   UNL     1     -28.084   8.908   6.923  1.00  0.00    -0.252 NA
ATOM     10  C   UNL     1     -29.344   8.589   7.249  1.00  0.00    +0.072 A 
ATOM     11  C   UNL     1     -30.429   9.457   7.040  1.00  0.00    +0.019 A 
ATOM     12  C   UNL     1     -31.729   9.020   7.415  1.00  0.00    +0.012 A 
ATOM     13  C   UNL     1     -31.937   7.762   7.979  1.00  0.00    +0.001 A 
ATOM     14  C   UNL     1     -30.855   6.919   8.178  1.00  0.00    +0.002 A 
ATOM     15  C   UNL     1     -29.576   7.340   7.812  1.00  0.00    +0.029 A 
ENDROOT
TORSDOF 0
ENDMDL
MODEL 8
REMARK VINA RESULT:    -7.429      8.899     10.451
REMARK INTER + INTRA:          -7.429
REMARK INTER:                  -7.429
REMARK INTRA:                   0.000
REMARK UNBOUND:                 0.000
REMARK SMILES Clc1c2c(nc3ccccc13)CCCC2
REMARK SMILES IDX 1 1 2 2 3 3 15 4 14 5 13 6 12 7 4 8 5 9 6 10 11 11 10 12
REMARK SMILES IDX 9 13 8 14 7 15
REMARK H PARENT
ROOT
ATOM      1 Cl   UNL     1     -34.068   3.480  11.326  1.00  0.00    -0.083 Cl
ATOM      2  C   UNL     1     -34.778   4.554  10.150  1.00  0.00    +0.055 A 
ATOM      3  C   UNL     1     -36.173   4.713  10.130  1.00  0.00    -0.007 A 
ATOM      4  C   UNL     1     -37.082   3.969  11.078  1.00  0.00    +0.039 C 
ATOM      5  C   UNL     1     -38.521   4.488  11.103  1.00  0.00    +0.005 C 
ATOM      6  C   UNL     1     -39.027   4.731   9.690  1.00  0.00    +0.007 C 
ATOM      7  C   UNL     1     -38.175   5.799   9.015  1.00  0.00    +0.056 C 
ATOM      8  C   UNL     1     -36.695   5.543   9.140  1.00  0.00    +0.046 A 
ATOM      9  N   UNL     1     -35.920   6.212   8.254  1.00  0.00    -0.252 NA
ATOM     10  C   UNL     1     -34.589   6.064   8.298  1.00  0.00    +0.072 A 
ATOM     11  C   UNL     1     -33.943   5.236   9.231  1.00  0.00    +0.019 A 
ATOM     12  C   UNL     1     -32.525   5.144   9.187  1.00  0.00    +0.012 A 
ATOM     13  C   UNL     1     -31.779   5.855   8.248  1.00  0.00    +0.001 A 
ATOM     14  C   UNL     1     -32.433   6.668   7.336  1.00  0.00    +0.002 A 
ATOM     15  C   UNL     1     -33.825   6.763   7.370  1.00  0.00    +0.029 A 
ENDROOT
TORSDOF 0
ENDMDL
MODEL 9
REMARK VINA RESULT:    -7.210      9.631     10.927
REMARK INTER + INTRA:          -7.210
REMARK INTER:                  -7.210
REMARK INTRA:                   0.000
REMARK UNBOUND:                 0.000
REMARK SMILES Clc1c2c(nc3ccccc13)CCCC2
REMARK SMILES IDX 1 1 2 2 3 3 15 4 14 5 13 6 12 7 4 8 5 9 6 10 11 11 10 12
REMARK SMILES IDX 9 13 8 14 7 15
REMARK H PARENT
ROOT
ATOM      1 Cl   UNL     1     -26.058   3.718  12.299  1.00  0.00    -0.083 Cl
ATOM      2  C   UNL     1     -25.948   2.046  11.818  1.00  0.00    +0.055 A 
ATOM      3  C   UNL     1     -27.079   1.224  11.953  1.00  0.00    -0.007 A 
ATOM      4  C   UNL     1     -28.382   1.734  12.520  1.00  0.00    +0.039 C 
ATOM      5  C   UNL     1     -29.566   0.789  12.315  1.00  0.00    +0.005 C 
ATOM      6  C   UNL     1     -29.172  -0.643  12.640  1.00  0.00    +0.007 C 
ATOM      7  C   UNL     1     -28.065  -1.098  11.696  1.00  0.00    +0.056 C 
ATOM      8  C   UNL     1     -26.926  -0.115  11.601  1.00  0.00    +0.046 A 
ATOM      9  N   UNL     1     -25.770  -0.621  11.110  1.00  0.00    -0.252 NA
ATOM     10  C   UNL     1     -24.705   0.179  10.970  1.00  0.00    +0.072 A 
ATOM     11  C   UNL     1     -24.724   1.541  11.313  1.00  0.00    +0.019 A 
ATOM     12  C   UNL     1     -23.536   2.302  11.132  1.00  0.00    +0.012 A 
ATOM     13  C   UNL     1     -22.374   1.724  10.625  1.00  0.00    +0.001 A 
ATOM     14  C   UNL     1     -22.373   0.379  10.291  1.00  0.00    +0.002 A 
ATOM     15  C   UNL     1     -23.534  -0.375  10.467  1.00  0.00    +0.029 A 
ENDROOT
TORSDOF 0
ENDMDL
