MODEL 1
REMARK VINA RESULT:    -8.485      0.000      0.000
REMARK INTER + INTRA:          -9.564
REMARK INTER:                  -9.477
REMARK INTRA:                  -0.087
REMARK UNBOUND:                -0.087
REMARK SMILES O=C(Cl)c1cccc2c([N+](=O)[O-])cccc12
REMARK SMILES IDX 9 1 8 2 7 3 6 4 5 5 4 6 16 7 15 8 14 9 13 10 10 11 11 12
REMARK SMILES IDX 12 13 2 14 1 15 3 16
REMARK H PARENT
ROOT
ATOM      1  C   UNL     1     -27.258   9.228   6.273  1.00  0.00    +0.277 A 
ATOM      2  C   UNL     1     -28.395  10.078   6.351  1.00  0.00    +0.060 A 
ATOM      3  C   UNL     1     -28.470  11.371   5.766  1.00  0.00    +0.016 A 
ATOM      4  C   UNL     1     -29.603  12.175   5.886  1.00  0.00    +0.002 A 
ATOM      5  C   UNL     1     -30.704  11.708   6.584  1.00  0.00    +0.014 A 
ATOM      6  C   UNL     1     -30.668  10.433   7.161  1.00  0.00    +0.042 A 
ATOM      7  C   UNL     1     -29.518   9.604   7.082  1.00  0.00    +0.001 A 
ATOM      8  C   UNL     1     -29.425   8.337   7.719  1.00  0.00    +0.010 A 
ATOM      9  C   UNL     1     -28.284   7.537   7.629  1.00  0.00    +0.008 A 
ATOM     10  C   UNL     1     -27.193   7.977   6.900  1.00  0.00    +0.086 A 
ENDROOT
BRANCH   1  11
ATOM     11  N   UNL     1     -26.082   9.631   5.521  1.00  0.00    +0.063 N 
ATOM     12  O   UNL     1     -25.080   9.952   6.174  1.00  0.00    -0.258 OA
ATOM     13  O   UNL     1     -26.160   9.605   4.286  1.00  0.00    -0.258 OA
ENDBRANCH   1  11
BRANCH   6  14
ATOM     14  C   UNL     1     -31.908  10.000   7.848  1.00  0.00    +0.253 C 
ATOM     15  O   UNL     1     -32.324  10.724   8.750  1.00  0.00    -0.276 OA
ATOM     16 Cl   UNL     1     -32.693   8.547   7.282  1.00  0.00    -0.038 Cl
ENDBRANCH   6  14
TORSDOF 2
ENDMDL
MODEL 2
REMARK VINA RESULT:    -8.215      2.343      3.811
REMARK INTER + INTRA:          -9.263
REMARK INTER:                  -9.900
REMARK INTRA:                   0.637
REMARK UNBOUND:                -0.087
REMARK SMILES O=C(Cl)c1cccc2c([N+](=O)[O-])cccc12
REMARK SMILES IDX 9 1 8 2 7 3 6 4 5 5 4 6 16 7 15 8 14 9 13 10 10 11 11 12
REMARK SMILES IDX 12 13 2 14 1 15 3 16
REMARK H PARENT
ROOT
ATOM      1  C   UNL     1     -28.344  12.001   5.679  1.00  0.00    +0.277 A 
ATOM      2  C   UNL     1     -27.768  10.739   5.990  1.00  0.00    +0.060 A 
ATOM      3  C   UNL     1     -26.479  10.320   5.562  1.00  0.00    +0.016 A 
ATOM      4  C   UNL     1     -25.964   9.063   5.878  1.00  0.00    +0.002 A 
ATOM      5  C   UNL     1     -26.716   8.188   6.644  1.00  0.00    +0.014 A 
ATOM      6  C   UNL     1     -27.984   8.576   7.094  1.00  0.00    +0.042 A 
ATOM      7  C   UNL     1     -28.547   9.837   6.762  1.00  0.00    +0.001 A 
ATOM      8  C   UNL     1     -29.859  10.228   7.142  1.00  0.00    +0.010 A 
ATOM      9  C   UNL     1     -30.395  11.473   6.805  1.00  0.00    +0.008 A 
ATOM     10  C   UNL     1     -29.636  12.371   6.074  1.00  0.00    +0.086 A 
ENDROOT
BRANCH   1  11
ATOM     11  N   UNL     1     -27.599  12.988   4.917  1.00  0.00    +0.063 N 
ATOM     12  O   UNL     1     -27.651  14.161   5.311  1.00  0.00    -0.258 OA
ATOM     13  O   UNL     1     -26.949  12.583   3.943  1.00  0.00    -0.258 OA
ENDBRANCH   1  11
BRANCH   6  14
ATOM     14  C   UNL     1     -28.695   7.593   7.946  1.00  0.00    +0.253 C 
ATOM     15  O   UNL     1     -28.040   7.059   8.840  1.00  0.00    -0.276 OA
ATOM     16 Cl   UNL     1     -30.394   7.327   7.648  1.00  0.00    -0.038 Cl
ENDBRANCH   6  14
TORSDOF 2
ENDMDL
MODEL 3
REMARK VINA RESULT:    -8.147      2.701      4.776
REMARK INTER + INTRA:          -9.187
REMARK INTER:                  -9.691
REMARK INTRA:                   0.504
REMARK UNBOUND:                -0.087
REMARK SMILES O=C(Cl)c1cccc2c([N+](=O)[O-])cccc12
REMARK SMILES IDX 9 1 8 2 7 3 6 4 5 5 4 6 16 7 15 8 14 9 13 10 10 11 11 12
REMARK SMILES IDX 12 13 2 14 1 15 3 16
REMARK H PARENT
ROOT
ATOM      1  C   UNL     1     -30.586   9.323   7.392  1.00  0.00    +0.277 A 
ATOM      2  C   UNL     1     -29.812  10.337   6.764  1.00  0.00    +0.060 A 
ATOM      3  C   UNL     1     -30.315  11.612   6.388  1.00  0.00    +0.016 A 
ATOM      4  C   UNL     1     -29.518  12.568   5.758  1.00  0.00    +0.002 A 
ATOM      5  C   UNL     1     -28.188  12.286   5.495  1.00  0.00    +0.014 A 
ATOM      6  C   UNL     1     -27.658  11.044   5.866  1.00  0.00    +0.042 A 
ATOM      7  C   UNL     1     -28.451  10.040   6.481  1.00  0.00    +0.001 A 
ATOM      8  C   UNL     1     -27.960   8.746   6.802  1.00  0.00    +0.010 A 
ATOM      9  C   UNL     1     -28.758   7.772   7.406  1.00  0.00    +0.008 A 
ATOM     10  C   UNL     1     -30.078   8.057   7.709  1.00  0.00    +0.086 A 
ENDROOT
BRANCH   1  11
ATOM     11  N   UNL     1     -31.977   9.562   7.737  1.00  0.00    +0.063 N 
ATOM     12  O   UNL     1     -32.814   8.771   7.282  1.00  0.00    -0.258 OA
ATOM     13  O   UNL     1     -32.223  10.524   8.478  1.00  0.00    -0.258 OA
ENDBRANCH   1  11
BRANCH   6  14
ATOM     14  C   UNL     1     -26.214  10.849   5.588  1.00  0.00    +0.253 C 
ATOM     15  O   UNL     1     -25.756  11.429   4.606  1.00  0.00    -0.276 OA
ATOM     16 Cl   UNL     1     -25.290   9.873   6.701  1.00  0.00    -0.038 Cl
ENDBRANCH   6  14
TORSDOF 2
ENDMDL
MODEL 4
REMARK VINA RESULT:    -8.117      2.634      5.439
REMARK INTER + INTRA:          -9.154
REMARK INTER:                  -9.891
REMARK INTRA:                   0.737
REMARK UNBOUND:                -0.087
REMARK SMILES O=C(Cl)c1cccc2c([N+](=O)[O-])cccc12
REMARK SMILES IDX 9 1 8 2 7 3 6 4 5 5 4 6 16 7 15 8 14 9 13 10 10 11 11 12
REMARK SMILES IDX 12 13 2 14 1 15 3 16
REMARK H PARENT
ROOT
ATOM      1  C   UNL     1     -30.627  10.253   6.936  1.00  0.00    +0.277 A 
ATOM      2  C   UNL     1     -29.409   9.525   7.021  1.00  0.00    +0.060 A 
ATOM      3  C   UNL     1     -29.294   8.216   7.566  1.00  0.00    +0.016 A 
ATOM      4  C   UNL     1     -28.071   7.550   7.644  1.00  0.00    +0.002 A 
ATOM      5  C   UNL     1     -26.924   8.164   7.168  1.00  0.00    +0.014 A 
ATOM      6  C   UNL     1     -27.006   9.447   6.613  1.00  0.00    +0.042 A 
ATOM      7  C   UNL     1     -28.230  10.163   6.548  1.00  0.00    +0.001 A 
ATOM      8  C   UNL     1     -28.331  11.492   6.058  1.00  0.00    +0.010 A 
ATOM      9  C   UNL     1     -29.545  12.179   6.003  1.00  0.00    +0.008 A 
ATOM     10  C   UNL     1     -30.704  11.560   6.439  1.00  0.00    +0.086 A 
ENDROOT
BRANCH   1  11
ATOM     11  N   UNL     1     -31.877   9.657   7.374  1.00  0.00    +0.063 N 
ATOM     12  O   UNL     1     -32.409  10.144   8.382  1.00  0.00    -0.258 OA
ATOM     13  O   UNL     1     -32.330   8.723   6.700  1.00  0.00    -0.258 OA
ENDBRANCH   1  11
BRANCH   6  14
ATOM     14  C   UNL     1     -25.736  10.005   6.088  1.00  0.00    +0.253 C 
ATOM     15  O   UNL     1     -24.750   9.271   6.127  1.00  0.00    -0.276 OA
ATOM     16 Cl   UNL     1     -25.765  11.614   5.414  1.00  0.00    -0.038 Cl
ENDBRANCH   6  14
TORSDOF 2
ENDMDL
MODEL 5
REMARK VINA RESULT:    -8.022      0.908      2.814
REMARK INTER + INTRA:          -9.047
REMARK INTER:                  -9.526
REMARK INTRA:                   0.480
REMARK UNBOUND:                -0.087
REMARK SMILES O=C(Cl)c1cccc2c([N+](=O)[O-])cccc12
REMARK SMILES IDX 9 1 8 2 7 3 6 4 5 5 4 6 16 7 15 8 14 9 13 10 10 11 11 12
REMARK SMILES IDX 12 13 2 14 1 15 3 16
REMARK H PARENT
ROOT
ATOM      1  C   UNL     1     -27.569  11.243   5.793  1.00  0.00    +0.277 A 
ATOM      2  C   UNL     1     -28.251  10.158   6.408  1.00  0.00    +0.060 A 
ATOM      3  C   UNL     1     -27.645   8.916   6.743  1.00  0.00    +0.016 A 
ATOM      4  C   UNL     1     -28.362   7.875   7.330  1.00  0.00    +0.002 A 
ATOM      5  C   UNL     1     -29.707   8.044   7.616  1.00  0.00    +0.014 A 
ATOM      6  C   UNL     1     -30.331   9.261   7.311  1.00  0.00    +0.042 A 
ATOM      7  C   UNL     1     -29.634  10.328   6.685  1.00  0.00    +0.001 A 
ATOM      8  C   UNL     1     -30.258  11.544   6.299  1.00  0.00    +0.010 A 
ATOM      9  C   UNL     1     -29.555  12.582   5.683  1.00  0.00    +0.008 A 
ATOM     10  C   UNL     1     -28.201  12.438   5.430  1.00  0.00    +0.086 A 
ENDROOT
BRANCH   1  11
ATOM     11  N   UNL     1     -26.148  11.154   5.503  1.00  0.00    +0.063 N 
ATOM     12  O   UNL     1     -25.417  10.713   6.401  1.00  0.00    -0.258 OA
ATOM     13  O   UNL     1     -25.774  11.505   4.376  1.00  0.00    -0.258 OA
ENDBRANCH   1  11
BRANCH   6  14
ATOM     14  C   UNL     1     -31.759   9.367   7.696  1.00  0.00    +0.253 C 
ATOM     15  O   UNL     1     -32.077  10.335   8.384  1.00  0.00    -0.276 OA
ATOM     16 Cl   UNL     1     -32.862   8.155   7.095  1.00  0.00    -0.038 Cl
ENDBRANCH   6  14
TORSDOF 2
ENDMDL
MODEL 6
REMARK VINA RESULT:    -7.744      1.598      2.008
REMARK INTER + INTRA:          -8.736
REMARK INTER:                  -8.699
REMARK INTRA:                  -0.038
REMARK UNBOUND:                -0.087
REMARK SMILES O=C(Cl)c1cccc2c([N+](=O)[O-])cccc12
REMARK SMILES IDX 9 1 8 2 7 3 6 4 5 5 4 6 16 7 15 8 14 9 13 10 10 11 11 12
REMARK SMILES IDX 12 13 2 14 1 15 3 16
REMARK H PARENT
ROOT
ATOM      1  C   UNL     1     -26.720   8.718   6.808  1.00  0.00    +0.277 A 
ATOM      2  C   UNL     1     -27.388   9.918   6.443  1.00  0.00    +0.060 A 
ATOM      3  C   UNL     1     -26.756  11.031   5.824  1.00  0.00    +0.016 A 
ATOM      4  C   UNL     1     -27.453  12.195   5.502  1.00  0.00    +0.002 A 
ATOM      5  C   UNL     1     -28.808  12.281   5.775  1.00  0.00    +0.014 A 
ATOM      6  C   UNL     1     -29.463  11.197   6.372  1.00  0.00    +0.042 A 
ATOM      7  C   UNL     1     -28.775  10.011   6.740  1.00  0.00    +0.001 A 
ATOM      8  C   UNL     1     -29.398   8.925   7.412  1.00  0.00    +0.010 A 
ATOM      9  C   UNL     1     -28.702   7.767   7.766  1.00  0.00    +0.008 A 
ATOM     10  C   UNL     1     -27.356   7.655   7.461  1.00  0.00    +0.086 A 
ENDROOT
BRANCH   1  11
ATOM     11  N   UNL     1     -25.308   8.538   6.513  1.00  0.00    +0.063 N 
ATOM     12  O   UNL     1     -24.988   8.463   5.319  1.00  0.00    -0.258 OA
ATOM     13  O   UNL     1     -24.527   8.494   7.473  1.00  0.00    -0.258 OA
ENDBRANCH   1  11
BRANCH   6  14
ATOM     14  C   UNL     1     -30.921  11.362   6.584  1.00  0.00    +0.253 C 
ATOM     15  O   UNL     1     -31.623  11.434   5.576  1.00  0.00    -0.276 OA
ATOM     16 Cl   UNL     1     -31.514  11.380   8.225  1.00  0.00    -0.038 Cl
ENDBRANCH   6  14
TORSDOF 2
ENDMDL
MODEL 7
REMARK VINA RESULT:    -7.706      5.401      7.001
REMARK INTER + INTRA:          -8.694
REMARK INTER:                  -8.439
REMARK INTRA:                  -0.255
REMARK UNBOUND:                -0.087
REMARK SMILES O=C(Cl)c1cccc2c([N+](=O)[O-])cccc12
REMARK SMILES IDX 9 1 8 2 7 3 6 4 5 5 4 6 16 7 15 8 14 9 13 10 10 11 11 12
REMARK SMILES IDX 12 13 2 14 1 15 3 16
REMARK H PARENT
ROOT
ATOM      1  C   UNL     1     -33.866   4.731   7.897  1.00  0.00    +0.277 A 
ATOM      2  C   UNL     1     -33.438   5.710   6.960  1.00  0.00    +0.060 A 
ATOM      3  C   UNL     1     -33.996   5.876   5.663  1.00  0.00    +0.016 A 
ATOM      4  C   UNL     1     -33.528   6.841   4.772  1.00  0.00    +0.002 A 
ATOM      5  C   UNL     1     -32.496   7.683   5.152  1.00  0.00    +0.014 A 
ATOM      6  C   UNL     1     -31.934   7.555   6.428  1.00  0.00    +0.042 A 
ATOM      7  C   UNL     1     -32.367   6.562   7.346  1.00  0.00    +0.001 A 
ATOM      8  C   UNL     1     -31.768   6.361   8.618  1.00  0.00    +0.010 A 
ATOM      9  C   UNL     1     -32.209   5.378   9.506  1.00  0.00    +0.008 A 
ATOM     10  C   UNL     1     -33.267   4.558   9.151  1.00  0.00    +0.086 A 
ENDROOT
BRANCH   1  11
ATOM     11  N   UNL     1     -34.972   3.842   7.586  1.00  0.00    +0.063 N 
ATOM     12  O   UNL     1     -34.717   2.849   6.890  1.00  0.00    -0.258 OA
ATOM     13  O   UNL     1     -36.082   4.129   8.054  1.00  0.00    -0.258 OA
ENDBRANCH   1  11
BRANCH   6  14
ATOM     14  C   UNL     1     -30.867   8.529   6.764  1.00  0.00    +0.253 C 
ATOM     15  O   UNL     1     -29.717   8.219   6.458  1.00  0.00    -0.276 OA
ATOM     16 Cl   UNL     1     -31.339  10.038   7.502  1.00  0.00    -0.038 Cl
ENDBRANCH   6  14
TORSDOF 2
ENDMDL
MODEL 8
REMARK VINA RESULT:    -7.459      4.966      6.296
REMARK INTER + INTRA:          -8.418
REMARK INTER:                  -8.196
REMARK INTRA:                  -0.222
REMARK UNBOUND:                -0.087
REMARK SMILES O=C(Cl)c1cccc2c([N+](=O)[O-])cccc12
REMARK SMILES IDX 9 1 8 2 7 3 6 4 5 5 4 6 16 7 15 8 14 9 13 10 10 11 11 12
REMARK SMILES IDX 12 13 2 14 1 15 3 16
REMARK H PARENT
ROOT
ATOM      1  C   UNL     1     -31.938   7.582   6.406  1.00  0.00    +0.277 A 
ATOM      2  C   UNL     1     -32.311   6.589   7.353  1.00  0.00    +0.060 A 
ATOM      3  C   UNL     1     -31.696   6.421   8.623  1.00  0.00    +0.016 A 
ATOM      4  C   UNL     1     -32.087   5.418   9.510  1.00  0.00    +0.002 A 
ATOM      5  C   UNL     1     -33.116   4.559   9.163  1.00  0.00    +0.014 A 
ATOM      6  C   UNL     1     -33.752   4.706   7.924  1.00  0.00    +0.042 A 
ATOM      7  C   UNL     1     -33.356   5.697   6.988  1.00  0.00    +0.001 A 
ATOM      8  C   UNL     1     -33.934   5.824   5.696  1.00  0.00    +0.010 A 
ATOM      9  C   UNL     1     -33.529   6.805   4.789  1.00  0.00    +0.008 A 
ATOM     10  C   UNL     1     -32.528   7.695   5.142  1.00  0.00    +0.086 A 
ENDROOT
BRANCH   1  11
ATOM     11  N   UNL     1     -30.897   8.546   6.718  1.00  0.00    +0.063 N 
ATOM     12  O   UNL     1     -31.250   9.594   7.277  1.00  0.00    -0.258 OA
ATOM     13  O   UNL     1     -29.733   8.243   6.422  1.00  0.00    -0.258 OA
ENDBRANCH   1  11
BRANCH   6  14
ATOM     14  C   UNL     1     -34.873   3.772   7.659  1.00  0.00    +0.253 C 
ATOM     15  O   UNL     1     -34.621   2.787   6.967  1.00  0.00    -0.276 OA
ATOM     16 Cl   UNL     1     -36.418   4.117   8.392  1.00  0.00    -0.038 Cl
ENDBRANCH   6  14
TORSDOF 2
ENDMDL
MODEL 9
REMARK VINA RESULT:    -7.013      9.287     10.617
REMARK INTER + INTRA:          -7.920
REMARK INTER:                  -7.632
REMARK INTRA:                  -0.288
REMARK UNBOUND:                -0.087
REMARK SMILES O=C(Cl)c1cccc2c([N+](=O)[O-])cccc12
REMARK SMILES IDX 9 1 8 2 7 3 6 4 5 5 4 6 16 7 15 8 14 9 13 10 10 11 11 12
REMARK SMILES IDX 12 13 2 14 1 15 3 16
REMARK H PARENT
ROOT
ATOM      1  C   UNL     1     -24.914   1.943  11.126  1.00  0.00    +0.277 A 
ATOM      2  C   UNL     1     -25.956   1.018  11.406  1.00  0.00    +0.060 A 
ATOM      3  C   UNL     1     -25.938  -0.350  11.018  1.00  0.00    +0.016 A 
ATOM      4  C   UNL     1     -26.994  -1.215  11.301  1.00  0.00    +0.002 A 
ATOM      5  C   UNL     1     -28.098  -0.745  11.994  1.00  0.00    +0.014 A 
ATOM      6  C   UNL     1     -28.141   0.594  12.402  1.00  0.00    +0.042 A 
ATOM      7  C   UNL     1     -27.094   1.506  12.101  1.00  0.00    +0.001 A 
ATOM      8  C   UNL     1     -27.142   2.885  12.439  1.00  0.00    +0.010 A 
ATOM      9  C   UNL     1     -26.103   3.766  12.133  1.00  0.00    +0.008 A 
ATOM     10  C   UNL     1     -24.977   3.298  11.477  1.00  0.00    +0.086 A 
ENDROOT
BRANCH   1  11
ATOM     11  N   UNL     1     -23.706   1.513  10.442  1.00  0.00    +0.063 N 
ATOM     12  O   UNL     1     -23.698   1.599   9.206  1.00  0.00    -0.258 OA
ATOM     13  O   UNL     1     -22.766   1.114  11.143  1.00  0.00    -0.258 OA
ENDBRANCH   1  11
BRANCH   6  14
ATOM     14  C   UNL     1     -29.339   0.994  13.177  1.00  0.00    +0.253 C 
ATOM     15  O   UNL     1     -30.405   1.043  12.565  1.00  0.00    -0.276 OA
ATOM     16 Cl   UNL     1     -29.146   1.301  14.884  1.00  0.00    -0.038 Cl
ENDBRANCH   6  14
TORSDOF 2
ENDMDL
