REMARK SMILES Cc1nc(Nc2cc(Cl)ccc2Cl)c2cnn(-c3ccc(Cl)cc3)c2n1
REMARK SMILES IDX 1 1 2 2 3 3 4 4 14 5 15 6 16 7 17 8 25 9 26 10 5 11 6 13
REMARK SMILES IDX 12 14 7 15 11 16 8 17 10 18 13 19 9 20 18 21 19 22 24 23
REMARK SMILES IDX 20 24 23 25 21 26 22 27
REMARK H PARENT 5 12
ROOT
ATOM      1  C   UNL     1      -0.778  -3.932  -1.199  1.00  0.00    +0.090 C 
ATOM      2  C   UNL     1      -0.413  -2.499  -0.956  1.00  0.00    +0.130 A 
ATOM      3  N   UNL     1       0.878  -2.160  -1.152  1.00  0.00    -0.215 NA
ATOM      4  C   UNL     1       1.282  -0.893  -0.902  1.00  0.00    +0.145 A 
ATOM      5  C   UNL     1       0.314   0.037  -0.507  1.00  0.00    +0.082 A 
ATOM      6  C   UNL     1       0.244   1.414  -0.249  1.00  0.00    +0.150 A 
ATOM      7  N   UNL     1      -0.973   1.818   0.112  1.00  0.00    -0.174 NA
ATOM      8  N   UNL     1      -1.740   0.685   0.067  1.00  0.00    -0.215 N 
ATOM      9  C   UNL     1      -0.983  -0.418  -0.331  1.00  0.00    +0.168 A 
ATOM     10  N   UNL     1      -1.392  -1.688  -0.524  1.00  0.00    -0.213 NA
ENDROOT
BRANCH   4  11
ATOM     11  N   UNL     1       2.630  -0.610  -1.142  1.00  0.00    -0.338 N 
ATOM     12  H   UNL     1       3.049  -1.393  -1.642  1.00  0.00    +0.168 HD
BRANCH  11  13
ATOM     13  C   UNL     1       3.586   0.089  -0.371  1.00  0.00    +0.060 A 
ATOM     14  C   UNL     1       4.854   0.377  -0.922  1.00  0.00    +0.064 A 
ATOM     15  C   UNL     1       3.316   0.556   0.923  1.00  0.00    +0.048 A 
ATOM     16  C   UNL     1       5.811   1.105  -0.208  1.00  0.00    +0.024 A 
ATOM     17  C   UNL     1       4.275   1.283   1.635  1.00  0.00    +0.043 A 
ATOM     18  C   UNL     1       5.518   1.562   1.075  1.00  0.00    +0.022 A 
ATOM     19 Cl   UNL     1       5.274  -0.171  -2.510  1.00  0.00    -0.082 Cl
ATOM     20 Cl   UNL     1       3.915   1.837   3.224  1.00  0.00    -0.084 Cl
ENDBRANCH  11  13
ENDBRANCH   4  11
BRANCH   8  21
ATOM     21  C   UNL     1      -3.128   0.764   0.403  1.00  0.00    +0.067 A 
ATOM     22  C   UNL     1      -3.674   2.009   0.767  1.00  0.00    +0.030 A 
ATOM     23  C   UNL     1      -3.963  -0.361   0.384  1.00  0.00    +0.030 A 
ATOM     24  C   UNL     1      -5.027   2.124   1.102  1.00  0.00    +0.023 A 
ATOM     25  C   UNL     1      -5.318  -0.241   0.720  1.00  0.00    +0.023 A 
ATOM     26  C   UNL     1      -5.843   0.998   1.077  1.00  0.00    +0.041 A 
ATOM     27 Cl   UNL     1      -7.507   1.135   1.490  1.00  0.00    -0.084 Cl
ENDBRANCH   8  21
TORSDOF 3
