MODEL 1
REMARK VINA RESULT:    -8.758      0.000      0.000
REMARK INTER + INTRA:         -10.146
REMARK INTER:                 -10.038
REMARK INTRA:                  -0.108
REMARK UNBOUND:                -0.108
REMARK SMILES Cc1nc(S)c2cnn(-c3ccc([N+](=O)[O-])cc3)c2n1
REMARK SMILES IDX 1 1 2 2 3 3 4 4 6 5 7 6 8 7 9 8 19 9 20 10 5 11 10 13 11 14
REMARK SMILES IDX 18 15 12 16 17 17 13 18 14 19 15 20 16 21
REMARK H PARENT 5 12
ROOT
ATOM      1  C   UNL     1     -22.954   2.572  11.060  1.00  0.00    +0.090 C 
ATOM      2  C   UNL     1     -24.433   2.593  10.816  1.00  0.00    +0.129 A 
ATOM      3  N   UNL     1     -25.164   1.655  11.447  1.00  0.00    -0.226 NA
ATOM      4  C   UNL     1     -26.501   1.652  11.276  1.00  0.00    +0.108 A 
ATOM      5  C   UNL     1     -27.095   2.619  10.470  1.00  0.00    +0.071 A 
ATOM      6  C   UNL     1     -28.379   2.989  10.042  1.00  0.00    +0.149 A 
ATOM      7  N   UNL     1     -28.373   4.048   9.234  1.00  0.00    -0.174 NA
ATOM      8  N   UNL     1     -27.055   4.398   9.128  1.00  0.00    -0.215 N 
ATOM      9  C   UNL     1     -26.247   3.540   9.875  1.00  0.00    +0.167 A 
ATOM     10  N   UNL     1     -24.906   3.568  10.022  1.00  0.00    -0.213 NA
ENDROOT
BRANCH   4  11
ATOM     11  S   UNL     1     -27.453   0.416  12.096  1.00  0.00    -0.123 SA
ATOM     12  H   UNL     1     -27.852  -0.254  11.009  1.00  0.00    +0.110 HD
ENDBRANCH   4  11
BRANCH   8  13
ATOM     13  C   UNL     1     -26.690   5.521   8.319  1.00  0.00    +0.068 A 
ATOM     14  C   UNL     1     -27.614   6.570   8.150  1.00  0.00    +0.035 A 
ATOM     15  C   UNL     1     -25.440   5.609   7.691  1.00  0.00    +0.035 A 
ATOM     16  C   UNL     1     -27.298   7.686   7.368  1.00  0.00    +0.088 A 
ATOM     17  C   UNL     1     -25.116   6.725   6.906  1.00  0.00    +0.088 A 
ATOM     18  C   UNL     1     -26.047   7.759   6.747  1.00  0.00    +0.269 A 
BRANCH  18  19
ATOM     19  N   UNL     1     -25.706   8.927   5.925  1.00  0.00    +0.062 N 
ATOM     20  O   UNL     1     -24.983   9.797   6.432  1.00  0.00    -0.258 OA
ATOM     21  O   UNL     1     -26.161   8.973   4.773  1.00  0.00    -0.258 OA
ENDBRANCH  18  19
ENDBRANCH   8  13
TORSDOF 3
ENDMDL
MODEL 2
REMARK VINA RESULT:    -8.633      4.777      8.099
REMARK INTER + INTRA:         -10.002
REMARK INTER:                  -9.982
REMARK INTRA:                  -0.020
REMARK UNBOUND:                -0.108
REMARK SMILES Cc1nc(S)c2cnn(-c3ccc([N+](=O)[O-])cc3)c2n1
REMARK SMILES IDX 1 1 2 2 3 3 4 4 6 5 7 6 8 7 9 8 19 9 20 10 5 11 10 13 11 14
REMARK SMILES IDX 18 15 12 16 17 17 13 18 14 19 15 20 16 21
REMARK H PARENT 5 12
ROOT
ATOM      1  C   UNL     1     -31.404  10.388   7.382  1.00  0.00    +0.090 C 
ATOM      2  C   UNL     1     -29.996  10.536   6.888  1.00  0.00    +0.129 A 
ATOM      3  N   UNL     1     -29.686  11.696   6.280  1.00  0.00    -0.226 NA
ATOM      4  C   UNL     1     -28.425  11.881   5.843  1.00  0.00    +0.108 A 
ATOM      5  C   UNL     1     -27.473  10.885   6.040  1.00  0.00    +0.071 A 
ATOM      6  C   UNL     1     -26.113  10.663   5.781  1.00  0.00    +0.149 A 
ATOM      7  N   UNL     1     -25.690   9.473   6.206  1.00  0.00    -0.174 NA
ATOM      8  N   UNL     1     -26.792   8.893   6.771  1.00  0.00    -0.215 N 
ATOM      9  C   UNL     1     -27.901   9.735   6.685  1.00  0.00    +0.167 A 
ATOM     10  N   UNL     1     -29.156   9.516   7.130  1.00  0.00    -0.213 NA
ENDROOT
BRANCH   4  11
ATOM     11  S   UNL     1     -28.026  13.398   5.038  1.00  0.00    -0.123 SA
ATOM     12  H   UNL     1     -27.073  13.806   5.885  1.00  0.00    +0.110 HD
ENDBRANCH   4  11
BRANCH   8  13
ATOM     13  C   UNL     1     -26.683   7.584   7.340  1.00  0.00    +0.068 A 
ATOM     14  C   UNL     1     -25.483   6.864   7.172  1.00  0.00    +0.035 A 
ATOM     15  C   UNL     1     -27.732   6.996   8.060  1.00  0.00    +0.035 A 
ATOM     16  C   UNL     1     -25.334   5.582   7.712  1.00  0.00    +0.088 A 
ATOM     17  C   UNL     1     -27.589   5.712   8.604  1.00  0.00    +0.088 A 
ATOM     18  C   UNL     1     -26.391   5.010   8.427  1.00  0.00    +0.269 A 
BRANCH  18  19
ATOM     19  N   UNL     1     -26.242   3.665   8.997  1.00  0.00    +0.062 N 
ATOM     20  O   UNL     1     -27.275   3.043   9.282  1.00  0.00    -0.258 OA
ATOM     21  O   UNL     1     -25.092   3.231   9.159  1.00  0.00    -0.258 OA
ENDBRANCH  18  19
ENDBRANCH   8  13
TORSDOF 3
ENDMDL
MODEL 3
REMARK VINA RESULT:    -8.176      4.621      7.380
REMARK INTER + INTRA:          -9.478
REMARK INTER:                  -9.532
REMARK INTRA:                   0.054
REMARK UNBOUND:                -0.108
REMARK SMILES Cc1nc(S)c2cnn(-c3ccc([N+](=O)[O-])cc3)c2n1
REMARK SMILES IDX 1 1 2 2 3 3 4 4 6 5 7 6 8 7 9 8 19 9 20 10 5 11 10 13 11 14
REMARK SMILES IDX 18 15 12 16 17 17 13 18 14 19 15 20 16 21
REMARK H PARENT 5 12
ROOT
ATOM      1  C   UNL     1     -31.623   8.234   7.561  1.00  0.00    +0.090 C 
ATOM      2  C   UNL     1     -30.201   8.620   7.284  1.00  0.00    +0.129 A 
ATOM      3  N   UNL     1     -29.996   9.845   6.765  1.00  0.00    -0.226 NA
ATOM      4  C   UNL     1     -28.732  10.244   6.524  1.00  0.00    +0.108 A 
ATOM      5  C   UNL     1     -27.672   9.394   6.827  1.00  0.00    +0.071 A 
ATOM      6  C   UNL     1     -26.270   9.395   6.763  1.00  0.00    +0.149 A 
ATOM      7  N   UNL     1     -25.728   8.263   7.207  1.00  0.00    -0.174 NA
ATOM      8  N   UNL     1     -26.793   7.492   7.585  1.00  0.00    -0.215 N 
ATOM      9  C   UNL     1     -27.998   8.159   7.365  1.00  0.00    +0.167 A 
ATOM     10  N   UNL     1     -29.252   7.728   7.614  1.00  0.00    -0.213 NA
ENDROOT
BRANCH   4  11
ATOM     11  S   UNL     1     -28.469  11.845   5.835  1.00  0.00    -0.123 SA
ATOM     12  H   UNL     1     -27.695  11.474   4.808  1.00  0.00    +0.110 HD
ENDBRANCH   4  11
BRANCH   8  13
ATOM     13  C   UNL     1     -26.559   6.186   8.122  1.00  0.00    +0.068 A 
ATOM     14  C   UNL     1     -27.647   5.303   8.272  1.00  0.00    +0.035 A 
ATOM     15  C   UNL     1     -25.280   5.757   8.504  1.00  0.00    +0.035 A 
ATOM     16  C   UNL     1     -27.462   4.018   8.793  1.00  0.00    +0.088 A 
ATOM     17  C   UNL     1     -25.088   4.471   9.026  1.00  0.00    +0.088 A 
ATOM     18  C   UNL     1     -26.180   3.606   9.169  1.00  0.00    +0.269 A 
BRANCH  18  19
ATOM     19  N   UNL     1     -25.977   2.259   9.716  1.00  0.00    +0.062 N 
ATOM     20  O   UNL     1     -26.008   1.306   8.925  1.00  0.00    -0.258 OA
ATOM     21  O   UNL     1     -25.785   2.155  10.936  1.00  0.00    -0.258 OA
ENDBRANCH  18  19
ENDBRANCH   8  13
TORSDOF 3
ENDMDL
MODEL 4
REMARK VINA RESULT:    -8.085      1.469      2.998
REMARK INTER + INTRA:          -9.374
REMARK INTER:                  -9.215
REMARK INTRA:                  -0.159
REMARK UNBOUND:                -0.108
REMARK SMILES Cc1nc(S)c2cnn(-c3ccc([N+](=O)[O-])cc3)c2n1
REMARK SMILES IDX 1 1 2 2 3 3 4 4 6 5 7 6 8 7 9 8 19 9 20 10 5 11 10 13 11 14
REMARK SMILES IDX 18 15 12 16 17 17 13 18 14 19 15 20 16 21
REMARK H PARENT 5 12
ROOT
ATOM      1  C   UNL     1     -30.537   2.856   9.619  1.00  0.00    +0.090 C 
ATOM      2  C   UNL     1     -29.071   3.072   9.843  1.00  0.00    +0.129 A 
ATOM      3  N   UNL     1     -28.441   2.181  10.631  1.00  0.00    -0.226 NA
ATOM      4  C   UNL     1     -27.116   2.323  10.840  1.00  0.00    +0.108 A 
ATOM      5  C   UNL     1     -26.431   3.369  10.230  1.00  0.00    +0.071 A 
ATOM      6  C   UNL     1     -25.122   3.868  10.154  1.00  0.00    +0.149 A 
ATOM      7  N   UNL     1     -25.021   4.952   9.388  1.00  0.00    -0.174 NA
ATOM      8  N   UNL     1     -26.292   5.178   8.934  1.00  0.00    -0.215 N 
ATOM      9  C   UNL     1     -27.179   4.223   9.433  1.00  0.00    +0.167 A 
ATOM     10  N   UNL     1     -28.504   4.111   9.208  1.00  0.00    -0.213 NA
ENDROOT
BRANCH   4  11
ATOM     11  S   UNL     1     -26.298   1.160  11.881  1.00  0.00    -0.123 SA
ATOM     12  H   UNL     1     -26.655   1.689  13.057  1.00  0.00    +0.110 HD
ENDBRANCH   4  11
BRANCH   8  13
ATOM     13  C   UNL     1     -26.541   6.287   8.065  1.00  0.00    +0.068 A 
ATOM     14  C   UNL     1     -25.553   6.659   7.132  1.00  0.00    +0.035 A 
ATOM     15  C   UNL     1     -27.738   7.015   8.113  1.00  0.00    +0.035 A 
ATOM     16  C   UNL     1     -25.755   7.737   6.264  1.00  0.00    +0.088 A 
ATOM     17  C   UNL     1     -27.948   8.096   7.246  1.00  0.00    +0.088 A 
ATOM     18  C   UNL     1     -26.955   8.454   6.325  1.00  0.00    +0.269 A 
BRANCH  18  19
ATOM     19  N   UNL     1     -27.176   9.586   5.417  1.00  0.00    +0.062 N 
ATOM     20  O   UNL     1     -27.912  10.503   5.809  1.00  0.00    -0.258 OA
ATOM     21  O   UNL     1     -26.612   9.559   4.313  1.00  0.00    -0.258 OA
ENDBRANCH  18  19
ENDBRANCH   8  13
TORSDOF 3
ENDMDL
MODEL 5
REMARK VINA RESULT:    -7.949      4.537      7.078
REMARK INTER + INTRA:          -9.218
REMARK INTER:                  -8.992
REMARK INTRA:                  -0.226
REMARK UNBOUND:                -0.108
REMARK SMILES Cc1nc(S)c2cnn(-c3ccc([N+](=O)[O-])cc3)c2n1
REMARK SMILES IDX 1 1 2 2 3 3 4 4 6 5 7 6 8 7 9 8 19 9 20 10 5 11 10 13 11 14
REMARK SMILES IDX 18 15 12 16 17 17 13 18 14 19 15 20 16 21
REMARK H PARENT 5 12
ROOT
ATOM      1  C   UNL     1     -30.838   7.005   8.442  1.00  0.00    +0.090 C 
ATOM      2  C   UNL     1     -29.420   7.263   8.028  1.00  0.00    +0.129 A 
ATOM      3  N   UNL     1     -29.192   8.379   7.310  1.00  0.00    -0.226 NA
ATOM      4  C   UNL     1     -27.928   8.663   6.938  1.00  0.00    +0.108 A 
ATOM      5  C   UNL     1     -26.892   7.814   7.313  1.00  0.00    +0.071 A 
ATOM      6  C   UNL     1     -25.499   7.726   7.172  1.00  0.00    +0.149 A 
ATOM      7  N   UNL     1     -24.982   6.649   7.760  1.00  0.00    -0.174 NA
ATOM      8  N   UNL     1     -26.056   6.006   8.314  1.00  0.00    -0.215 N 
ATOM      9  C   UNL     1     -27.240   6.698   8.058  1.00  0.00    +0.167 A 
ATOM     10  N   UNL     1     -28.494   6.382   8.442  1.00  0.00    -0.213 NA
ENDROOT
BRANCH   4  11
ATOM     11  S   UNL     1     -27.636  10.120   5.990  1.00  0.00    -0.123 SA
ATOM     12  H   UNL     1     -28.855  10.227   5.446  1.00  0.00    +0.110 HD
ENDBRANCH   4  11
BRANCH   8  13
ATOM     13  C   UNL     1     -25.848   4.790   9.038  1.00  0.00    +0.068 A 
ATOM     14  C   UNL     1     -24.767   4.706   9.938  1.00  0.00    +0.035 A 
ATOM     15  C   UNL     1     -26.688   3.678   8.881  1.00  0.00    +0.035 A 
ATOM     16  C   UNL     1     -24.529   3.535  10.666  1.00  0.00    +0.088 A 
ATOM     17  C   UNL     1     -26.455   2.502   9.607  1.00  0.00    +0.088 A 
ATOM     18  C   UNL     1     -25.376   2.435  10.496  1.00  0.00    +0.269 A 
BRANCH  18  19
ATOM     19  N   UNL     1     -25.133   1.203  11.257  1.00  0.00    +0.062 N 
ATOM     20  O   UNL     1     -23.966   0.954  11.593  1.00  0.00    -0.258 OA
ATOM     21  O   UNL     1     -26.108   0.484  11.518  1.00  0.00    -0.258 OA
ENDBRANCH  18  19
ENDBRANCH   8  13
TORSDOF 3
ENDMDL
MODEL 6
REMARK VINA RESULT:    -7.822      2.605      3.888
REMARK INTER + INTRA:          -9.072
REMARK INTER:                  -8.673
REMARK INTRA:                  -0.399
REMARK UNBOUND:                -0.108
REMARK SMILES Cc1nc(S)c2cnn(-c3ccc([N+](=O)[O-])cc3)c2n1
REMARK SMILES IDX 1 1 2 2 3 3 4 4 6 5 7 6 8 7 9 8 19 9 20 10 5 11 10 13 11 14
REMARK SMILES IDX 18 15 12 16 17 17 13 18 14 19 15 20 16 21
REMARK H PARENT 5 12
ROOT
ATOM      1  C   UNL     1     -28.816   1.490  14.437  1.00  0.00    +0.090 C 
ATOM      2  C   UNL     1     -28.165   0.765  13.298  1.00  0.00    +0.129 A 
ATOM      3  N   UNL     1     -28.141  -0.579  13.370  1.00  0.00    -0.226 NA
ATOM      4  C   UNL     1     -27.587  -1.273  12.355  1.00  0.00    +0.108 A 
ATOM      5  C   UNL     1     -27.070  -0.593  11.257  1.00  0.00    +0.071 A 
ATOM      6  C   UNL     1     -26.450  -0.887  10.033  1.00  0.00    +0.149 A 
ATOM      7  N   UNL     1     -26.146   0.202   9.329  1.00  0.00    -0.174 NA
ATOM      8  N   UNL     1     -26.582   1.246  10.097  1.00  0.00    -0.215 N 
ATOM      9  C   UNL     1     -27.155   0.790  11.285  1.00  0.00    +0.167 A 
ATOM     10  N   UNL     1     -27.697   1.514  12.285  1.00  0.00    -0.213 NA
ENDROOT
BRANCH   4  11
ATOM     11  S   UNL     1     -27.550  -3.032  12.459  1.00  0.00    -0.123 SA
ATOM     12  H   UNL     1     -26.289  -3.209  12.047  1.00  0.00    +0.110 HD
ENDBRANCH   4  11
BRANCH   8  13
ATOM     13  C   UNL     1     -26.411   2.586   9.623  1.00  0.00    +0.068 A 
ATOM     14  C   UNL     1     -27.472   3.208   8.935  1.00  0.00    +0.035 A 
ATOM     15  C   UNL     1     -25.220   3.298   9.822  1.00  0.00    +0.035 A 
ATOM     16  C   UNL     1     -27.346   4.516   8.455  1.00  0.00    +0.088 A 
ATOM     17  C   UNL     1     -25.088   4.609   9.344  1.00  0.00    +0.088 A 
ATOM     18  C   UNL     1     -26.151   5.213   8.661  1.00  0.00    +0.269 A 
BRANCH  18  19
ATOM     19  N   UNL     1     -26.011   6.586   8.161  1.00  0.00    +0.062 N 
ATOM     20  O   UNL     1     -27.048   7.242   7.980  1.00  0.00    -0.258 OA
ATOM     21  O   UNL     1     -24.866   7.010   7.951  1.00  0.00    -0.258 OA
ENDBRANCH  18  19
ENDBRANCH   8  13
TORSDOF 3
ENDMDL
MODEL 7
REMARK VINA RESULT:    -7.814      6.784      8.674
REMARK INTER + INTRA:          -9.064
REMARK INTER:                  -8.854
REMARK INTRA:                  -0.210
REMARK UNBOUND:                -0.108
REMARK SMILES Cc1nc(S)c2cnn(-c3ccc([N+](=O)[O-])cc3)c2n1
REMARK SMILES IDX 1 1 2 2 3 3 4 4 6 5 7 6 8 7 9 8 19 9 20 10 5 11 10 13 11 14
REMARK SMILES IDX 18 15 12 16 17 17 13 18 14 19 15 20 16 21
REMARK H PARENT 5 12
ROOT
ATOM      1  C   UNL     1     -26.043   8.457   5.812  1.00  0.00    +0.090 C 
ATOM      2  C   UNL     1     -27.216   9.374   5.980  1.00  0.00    +0.129 A 
ATOM      3  N   UNL     1     -27.027  10.666   5.655  1.00  0.00    -0.226 NA
ATOM      4  C   UNL     1     -28.062  11.522   5.767  1.00  0.00    +0.108 A 
ATOM      5  C   UNL     1     -29.299  11.054   6.200  1.00  0.00    +0.071 A 
ATOM      6  C   UNL     1     -30.589  11.552   6.438  1.00  0.00    +0.149 A 
ATOM      7  N   UNL     1     -31.437  10.619   6.866  1.00  0.00    -0.174 NA
ATOM      8  N   UNL     1     -30.698   9.468   6.904  1.00  0.00    -0.215 N 
ATOM      9  C   UNL     1     -29.383   9.703   6.500  1.00  0.00    +0.167 A 
ATOM     10  N   UNL     1     -28.366   8.822   6.403  1.00  0.00    -0.213 NA
ENDROOT
BRANCH   4  11
ATOM     11  S   UNL     1     -27.805  13.215   5.350  1.00  0.00    -0.123 SA
ATOM     12  H   UNL     1     -27.071  13.019   4.248  1.00  0.00    +0.110 HD
ENDBRANCH   4  11
BRANCH   8  13
ATOM     13  C   UNL     1     -31.318   8.249   7.325  1.00  0.00    +0.068 A 
ATOM     14  C   UNL     1     -32.623   7.958   6.880  1.00  0.00    +0.035 A 
ATOM     15  C   UNL     1     -30.668   7.335   8.165  1.00  0.00    +0.035 A 
ATOM     16  C   UNL     1     -33.266   6.777   7.267  1.00  0.00    +0.088 A 
ATOM     17  C   UNL     1     -31.306   6.150   8.557  1.00  0.00    +0.088 A 
ATOM     18  C   UNL     1     -32.604   5.876   8.107  1.00  0.00    +0.269 A 
BRANCH  18  19
ATOM     19  N   UNL     1     -33.271   4.635   8.518  1.00  0.00    +0.062 N 
ATOM     20  O   UNL     1     -32.825   4.042   9.510  1.00  0.00    -0.258 OA
ATOM     21  O   UNL     1     -34.243   4.254   7.849  1.00  0.00    -0.258 OA
ENDBRANCH  18  19
ENDBRANCH   8  13
TORSDOF 3
ENDMDL
MODEL 8
REMARK VINA RESULT:    -7.784      5.633      7.579
REMARK INTER + INTRA:          -9.030
REMARK INTER:                  -8.912
REMARK INTRA:                  -0.118
REMARK UNBOUND:                -0.108
REMARK SMILES Cc1nc(S)c2cnn(-c3ccc([N+](=O)[O-])cc3)c2n1
REMARK SMILES IDX 1 1 2 2 3 3 4 4 6 5 7 6 8 7 9 8 19 9 20 10 5 11 10 13 11 14
REMARK SMILES IDX 18 15 12 16 17 17 13 18 14 19 15 20 16 21
REMARK H PARENT 5 12
ROOT
ATOM      1  C   UNL     1     -26.194   5.386   8.571  1.00  0.00    +0.090 C 
ATOM      2  C   UNL     1     -26.934   6.596   8.083  1.00  0.00    +0.129 A 
ATOM      3  N   UNL     1     -26.187   7.621   7.632  1.00  0.00    -0.226 NA
ATOM      4  C   UNL     1     -26.811   8.719   7.161  1.00  0.00    +0.108 A 
ATOM      5  C   UNL     1     -28.201   8.765   7.137  1.00  0.00    +0.071 A 
ATOM      6  C   UNL     1     -29.219   9.646   6.742  1.00  0.00    +0.149 A 
ATOM      7  N   UNL     1     -30.441   9.159   6.955  1.00  0.00    -0.174 NA
ATOM      8  N   UNL     1     -30.233   7.920   7.496  1.00  0.00    -0.215 N 
ATOM      9  C   UNL     1     -28.869   7.650   7.619  1.00  0.00    +0.167 A 
ATOM     10  N   UNL     1     -28.276   6.538   8.101  1.00  0.00    -0.213 NA
ENDROOT
BRANCH   4  11
ATOM     11  S   UNL     1     -25.829  10.062   6.580  1.00  0.00    -0.123 SA
ATOM     12  H   UNL     1     -24.971  10.115   7.607  1.00  0.00    +0.110 HD
ENDBRANCH   4  11
BRANCH   8  13
ATOM     13  C   UNL     1     -31.358   7.109   7.847  1.00  0.00    +0.068 A 
ATOM     14  C   UNL     1     -32.558   7.257   7.123  1.00  0.00    +0.035 A 
ATOM     15  C   UNL     1     -31.305   6.172   8.888  1.00  0.00    +0.035 A 
ATOM     16  C   UNL     1     -33.683   6.484   7.432  1.00  0.00    +0.088 A 
ATOM     17  C   UNL     1     -32.427   5.395   9.203  1.00  0.00    +0.088 A 
ATOM     18  C   UNL     1     -33.612   5.554   8.475  1.00  0.00    +0.269 A 
BRANCH  18  19
ATOM     19  N   UNL     1     -34.787   4.738   8.806  1.00  0.00    +0.062 N 
ATOM     20  O   UNL     1     -35.366   4.157   7.876  1.00  0.00    -0.258 OA
ATOM     21  O   UNL     1     -35.131   4.678   9.995  1.00  0.00    -0.258 OA
ENDBRANCH  18  19
ENDBRANCH   8  13
TORSDOF 3
ENDMDL
MODEL 9
REMARK VINA RESULT:    -7.567      4.776      6.909
REMARK INTER + INTRA:          -8.780
REMARK INTER:                  -8.686
REMARK INTRA:                  -0.095
REMARK UNBOUND:                -0.108
REMARK SMILES Cc1nc(S)c2cnn(-c3ccc([N+](=O)[O-])cc3)c2n1
REMARK SMILES IDX 1 1 2 2 3 3 4 4 6 5 7 6 8 7 9 8 19 9 20 10 5 11 10 13 11 14
REMARK SMILES IDX 18 15 12 16 17 17 13 18 14 19 15 20 16 21
REMARK H PARENT 5 12
ROOT
ATOM      1  C   UNL     1     -25.603   4.794   9.166  1.00  0.00    +0.090 C 
ATOM      2  C   UNL     1     -25.509   3.370   9.625  1.00  0.00    +0.129 A 
ATOM      3  N   UNL     1     -24.277   2.901   9.896  1.00  0.00    -0.226 NA
ATOM      4  C   UNL     1     -24.148   1.633  10.335  1.00  0.00    +0.108 A 
ATOM      5  C   UNL     1     -25.282   0.847  10.512  1.00  0.00    +0.071 A 
ATOM      6  C   UNL     1     -25.608  -0.449  10.940  1.00  0.00    +0.149 A 
ATOM      7  N   UNL     1     -26.917  -0.693  10.911  1.00  0.00    -0.174 NA
ATOM      8  N   UNL     1     -27.478   0.471  10.462  1.00  0.00    -0.215 N 
ATOM      9  C   UNL     1     -26.501   1.434  10.209  1.00  0.00    +0.167 A 
ATOM     10  N   UNL     1     -26.663   2.697   9.764  1.00  0.00    -0.213 NA
ENDROOT
BRANCH   4  11
ATOM     11  S   UNL     1     -22.531   1.021  10.680  1.00  0.00    -0.123 SA
ATOM     12  H   UNL     1     -22.172   1.953  11.570  1.00  0.00    +0.110 HD
ENDBRANCH   4  11
BRANCH   8  13
ATOM     13  C   UNL     1     -28.899   0.555  10.314  1.00  0.00    +0.068 A 
ATOM     14  C   UNL     1     -29.543   1.779  10.582  1.00  0.00    +0.035 A 
ATOM     15  C   UNL     1     -29.671  -0.544   9.911  1.00  0.00    +0.035 A 
ATOM     16  C   UNL     1     -30.931   1.904  10.450  1.00  0.00    +0.088 A 
ATOM     17  C   UNL     1     -31.061  -0.426   9.777  1.00  0.00    +0.088 A 
ATOM     18  C   UNL     1     -31.686   0.798  10.048  1.00  0.00    +0.269 A 
BRANCH  18  19
ATOM     19  N   UNL     1     -33.142   0.921   9.907  1.00  0.00    +0.062 N 
ATOM     20  O   UNL     1     -33.853   0.234  10.655  1.00  0.00    -0.258 OA
ATOM     21  O   UNL     1     -33.574   1.704   9.049  1.00  0.00    -0.258 OA
ENDBRANCH  18  19
ENDBRANCH   8  13
TORSDOF 3
ENDMDL
