MODEL 1
REMARK VINA RESULT:    -9.068      0.000      0.000
REMARK INTER + INTRA:         -10.420
REMARK INTER:                 -10.659
REMARK INTRA:                   0.239
REMARK UNBOUND:                 0.239
REMARK SMILES CCNc1nc(C)nc2c1cnn2-c1ccccc1
REMARK SMILES IDX 3 1 2 3 1 4 4 5 10 6 5 7 11 8 9 9 6 10 12 11 13 12 8 13 7 14
REMARK SMILES IDX 14 15 15 16 19 17 16 18 18 19 17 20
REMARK H PARENT 3 2
ROOT
ATOM      1  N   UNL     1     -28.075  13.695   5.012  1.00  0.00    -0.370 N 
ATOM      2  H   UNL     1     -28.155  13.615   4.005  1.00  0.00    +0.162 HD
ENDROOT
BRANCH   1   3
ATOM      3  C   UNL     1     -26.869  14.368   5.478  1.00  0.00    +0.111 C 
ATOM      4  C   UNL     1     -27.251  15.682   6.143  1.00  0.00    +0.027 C 
ENDBRANCH   1   3
BRANCH   1   5
ATOM      5  C   UNL     1     -28.390  12.502   5.667  1.00  0.00    +0.140 A 
ATOM      6  C   UNL     1     -27.471  11.452   5.784  1.00  0.00    +0.082 A 
ATOM      7  N   UNL     1     -29.618  12.319   6.205  1.00  0.00    -0.216 NA
ATOM      8  C   UNL     1     -26.153  11.192   5.383  1.00  0.00    +0.150 A 
ATOM      9  C   UNL     1     -27.871  10.304   6.448  1.00  0.00    +0.168 A 
ATOM     10  C   UNL     1     -29.909  11.162   6.837  1.00  0.00    +0.130 A 
ATOM     11  N   UNL     1     -25.716   9.992   5.765  1.00  0.00    -0.174 NA
ATOM     12  N   UNL     1     -26.781   9.431   6.421  1.00  0.00    -0.215 N 
ATOM     13  N   UNL     1     -29.088  10.111   6.995  1.00  0.00    -0.213 NA
ATOM     14  C   UNL     1     -31.299  11.023   7.377  1.00  0.00    +0.090 C 
BRANCH  12  15
ATOM     15  C   UNL     1     -26.657   8.114   6.964  1.00  0.00    +0.067 A 
ATOM     16  C   UNL     1     -25.520   7.325   6.750  1.00  0.00    +0.028 A 
ATOM     17  C   UNL     1     -27.708   7.591   7.738  1.00  0.00    +0.028 A 
ATOM     18  C   UNL     1     -25.438   6.040   7.298  1.00  0.00    +0.002 A 
ATOM     19  C   UNL     1     -27.620   6.308   8.283  1.00  0.00    +0.002 A 
ATOM     20  C   UNL     1     -26.486   5.532   8.063  1.00  0.00    +0.000 A 
ENDBRANCH  12  15
ENDBRANCH   1   5
TORSDOF 3
ENDMDL
MODEL 2
REMARK VINA RESULT:    -8.490      2.738      6.467
REMARK INTER + INTRA:          -9.740
REMARK INTER:                  -9.578
REMARK INTRA:                  -0.162
REMARK UNBOUND:                 0.239
REMARK SMILES CCNc1nc(C)nc2c1cnn2-c1ccccc1
REMARK SMILES IDX 3 1 2 3 1 4 4 5 10 6 5 7 11 8 9 9 6 10 12 11 13 12 8 13 7 14
REMARK SMILES IDX 14 15 15 16 19 17 16 18 18 19 17 20
REMARK H PARENT 3 2
ROOT
ATOM      1  N   UNL     1     -32.158   6.514   8.580  1.00  0.00    -0.370 N 
ATOM      2  H   UNL     1     -32.096   5.984   9.441  1.00  0.00    +0.162 HD
ENDROOT
BRANCH   1   3
ATOM      3  C   UNL     1     -32.886   5.852   7.506  1.00  0.00    +0.111 C 
ATOM      4  C   UNL     1     -34.234   6.532   7.317  1.00  0.00    +0.027 C 
ENDBRANCH   1   3
BRANCH   1   5
ATOM      5  C   UNL     1     -30.935   7.083   8.217  1.00  0.00    +0.140 A 
ATOM      6  C   UNL     1     -30.854   8.324   7.574  1.00  0.00    +0.082 A 
ATOM      7  N   UNL     1     -29.775   6.434   8.468  1.00  0.00    -0.216 NA
ATOM      8  C   UNL     1     -31.746   9.302   7.112  1.00  0.00    +0.150 A 
ATOM      9  C   UNL     1     -29.598   8.811   7.249  1.00  0.00    +0.168 A 
ATOM     10  C   UNL     1     -28.600   6.995   8.115  1.00  0.00    +0.130 A 
ATOM     11  N   UNL     1     -31.136  10.346   6.553  1.00  0.00    -0.174 NA
ATOM     12  N   UNL     1     -29.800  10.045   6.627  1.00  0.00    -0.215 N 
ATOM     13  N   UNL     1     -28.434   8.179   7.501  1.00  0.00    -0.213 NA
ATOM     14  C   UNL     1     -27.362   6.200   8.398  1.00  0.00    +0.090 C 
BRANCH  12  15
ATOM     15  C   UNL     1     -28.842  10.966   6.100  1.00  0.00    +0.067 A 
ATOM     16  C   UNL     1     -27.518  10.593   5.836  1.00  0.00    +0.028 A 
ATOM     17  C   UNL     1     -29.238  12.289   5.837  1.00  0.00    +0.028 A 
ATOM     18  C   UNL     1     -26.610  11.525   5.320  1.00  0.00    +0.002 A 
ATOM     19  C   UNL     1     -28.327  13.216   5.322  1.00  0.00    +0.002 A 
ATOM     20  C   UNL     1     -27.014  12.833   5.064  1.00  0.00    +0.000 A 
ENDBRANCH  12  15
ENDBRANCH   1   5
TORSDOF 3
ENDMDL
MODEL 3
REMARK VINA RESULT:    -8.429      1.990      3.138
REMARK INTER + INTRA:          -9.668
REMARK INTER:                  -9.503
REMARK INTRA:                  -0.165
REMARK UNBOUND:                 0.239
REMARK SMILES CCNc1nc(C)nc2c1cnn2-c1ccccc1
REMARK SMILES IDX 3 1 2 3 1 4 4 5 10 6 5 7 11 8 9 9 6 10 12 11 13 12 8 13 7 14
REMARK SMILES IDX 14 15 15 16 19 17 16 18 18 19 17 20
REMARK H PARENT 3 2
ROOT
ATOM      1  N   UNL     1     -26.517  10.409   4.922  1.00  0.00    -0.370 N 
ATOM      2  H   UNL     1     -25.765  10.021   4.364  1.00  0.00    +0.162 HD
ENDROOT
BRANCH   1   3
ATOM      3  C   UNL     1     -26.241  11.721   5.490  1.00  0.00    +0.111 C 
ATOM      4  C   UNL     1     -27.328  12.695   5.058  1.00  0.00    +0.027 C 
ENDBRANCH   1   3
BRANCH   1   5
ATOM      5  C   UNL     1     -27.060   9.472   5.805  1.00  0.00    +0.140 A 
ATOM      6  C   UNL     1     -26.297   8.431   6.347  1.00  0.00    +0.082 A 
ATOM      7  N   UNL     1     -28.365   9.538   6.157  1.00  0.00    -0.216 NA
ATOM      8  C   UNL     1     -24.975   7.972   6.258  1.00  0.00    +0.150 A 
ATOM      9  C   UNL     1     -26.919   7.546   7.213  1.00  0.00    +0.168 A 
ATOM     10  C   UNL     1     -28.877   8.628   7.012  1.00  0.00    +0.130 A 
ATOM     11  N   UNL     1     -24.742   6.897   7.010  1.00  0.00    -0.174 NA
ATOM     12  N   UNL     1     -25.947   6.622   7.602  1.00  0.00    -0.215 N 
ATOM     13  N   UNL     1     -28.216   7.605   7.578  1.00  0.00    -0.213 NA
ATOM     14  C   UNL     1     -30.337   8.748   7.327  1.00  0.00    +0.090 C 
BRANCH  12  15
ATOM     15  C   UNL     1     -26.058   5.503   8.485  1.00  0.00    +0.067 A 
ATOM     16  C   UNL     1     -25.026   5.142   9.362  1.00  0.00    +0.028 A 
ATOM     17  C   UNL     1     -27.237   4.738   8.475  1.00  0.00    +0.028 A 
ATOM     18  C   UNL     1     -25.173   4.039  10.210  1.00  0.00    +0.002 A 
ATOM     19  C   UNL     1     -27.379   3.638   9.325  1.00  0.00    +0.002 A 
ATOM     20  C   UNL     1     -26.347   3.288  10.192  1.00  0.00    +0.000 A 
ENDBRANCH  12  15
ENDBRANCH   1   5
TORSDOF 3
ENDMDL
MODEL 4
REMARK VINA RESULT:    -8.392      2.849      4.662
REMARK INTER + INTRA:          -9.625
REMARK INTER:                  -9.249
REMARK INTRA:                  -0.376
REMARK UNBOUND:                 0.239
REMARK SMILES CCNc1nc(C)nc2c1cnn2-c1ccccc1
REMARK SMILES IDX 3 1 2 3 1 4 4 5 10 6 5 7 11 8 9 9 6 10 12 11 13 12 8 13 7 14
REMARK SMILES IDX 14 15 15 16 19 17 16 18 18 19 17 20
REMARK H PARENT 3 2
ROOT
ATOM      1  N   UNL     1     -25.993   8.896   5.657  1.00  0.00    -0.370 N 
ATOM      2  H   UNL     1     -25.306   8.326   5.177  1.00  0.00    +0.162 HD
ENDROOT
BRANCH   1   3
ATOM      3  C   UNL     1     -25.487  10.162   6.170  1.00  0.00    +0.111 C 
ATOM      4  C   UNL     1     -26.151  11.309   5.423  1.00  0.00    +0.027 C 
ENDBRANCH   1   3
BRANCH   1   5
ATOM      5  C   UNL     1     -26.770   8.152   6.549  1.00  0.00    +0.140 A 
ATOM      6  C   UNL     1     -26.253   7.054   7.248  1.00  0.00    +0.082 A 
ATOM      7  N   UNL     1     -28.069   8.468   6.756  1.00  0.00    -0.216 NA
ATOM      8  C   UNL     1     -25.031   6.373   7.333  1.00  0.00    +0.150 A 
ATOM      9  C   UNL     1     -27.097   6.372   8.111  1.00  0.00    +0.168 A 
ATOM     10  C   UNL     1     -28.808   7.742   7.621  1.00  0.00    +0.130 A 
ATOM     11  N   UNL     1     -25.058   5.351   8.188  1.00  0.00    -0.174 NA
ATOM     12  N   UNL     1     -26.342   5.340   8.670  1.00  0.00    -0.215 N 
ATOM     13  N   UNL     1     -28.391   6.681   8.332  1.00  0.00    -0.213 NA
ATOM     14  C   UNL     1     -30.246   8.135   7.771  1.00  0.00    +0.090 C 
BRANCH  12  15
ATOM     15  C   UNL     1     -26.726   4.344   9.621  1.00  0.00    +0.067 A 
ATOM     16  C   UNL     1     -27.833   3.509   9.419  1.00  0.00    +0.028 A 
ATOM     17  C   UNL     1     -25.971   4.195  10.798  1.00  0.00    +0.028 A 
ATOM     18  C   UNL     1     -28.176   2.547  10.376  1.00  0.00    +0.002 A 
ATOM     19  C   UNL     1     -26.318   3.232  11.749  1.00  0.00    +0.002 A 
ATOM     20  C   UNL     1     -27.421   2.409  11.538  1.00  0.00    +0.000 A 
ENDBRANCH  12  15
ENDBRANCH   1   5
TORSDOF 3
ENDMDL
MODEL 5
REMARK VINA RESULT:    -8.215      9.102     11.840
REMARK INTER + INTRA:          -9.417
REMARK INTER:                  -8.985
REMARK INTRA:                  -0.431
REMARK UNBOUND:                 0.239
REMARK SMILES CCNc1nc(C)nc2c1cnn2-c1ccccc1
REMARK SMILES IDX 3 1 2 3 1 4 4 5 10 6 5 7 11 8 9 9 6 10 12 11 13 12 8 13 7 14
REMARK SMILES IDX 14 15 15 16 19 17 16 18 18 19 17 20
REMARK H PARENT 3 2
ROOT
ATOM      1  N   UNL     1     -37.445   1.505  11.004  1.00  0.00    -0.370 N 
ATOM      2  H   UNL     1     -36.993   0.704  10.580  1.00  0.00    +0.162 HD
ENDROOT
BRANCH   1   3
ATOM      3  C   UNL     1     -38.835   1.294  11.383  1.00  0.00    +0.111 C 
ATOM      4  C   UNL     1     -39.126  -0.199  11.422  1.00  0.00    +0.027 C 
ENDBRANCH   1   3
BRANCH   1   5
ATOM      5  C   UNL     1     -37.182   2.691  10.313  1.00  0.00    +0.140 A 
ATOM      6  C   UNL     1     -36.016   2.868   9.558  1.00  0.00    +0.082 A 
ATOM      7  N   UNL     1     -38.055   3.723  10.365  1.00  0.00    -0.216 NA
ATOM      8  C   UNL     1     -34.871   2.123   9.246  1.00  0.00    +0.150 A 
ATOM      9  C   UNL     1     -35.837   4.078   8.907  1.00  0.00    +0.168 A 
ATOM     10  C   UNL     1     -37.790   4.862   9.691  1.00  0.00    +0.130 A 
ATOM     11  N   UNL     1     -34.024   2.772   8.448  1.00  0.00    -0.174 NA
ATOM     12  N   UNL     1     -34.615   3.991   8.238  1.00  0.00    -0.215 N 
ATOM     13  N   UNL     1     -36.702   5.112   8.944  1.00  0.00    -0.213 NA
ATOM     14  C   UNL     1     -38.789   5.970   9.825  1.00  0.00    +0.090 C 
BRANCH  12  15
ATOM     15  C   UNL     1     -33.957   4.958   7.416  1.00  0.00    +0.067 A 
ATOM     16  C   UNL     1     -34.265   5.115   6.058  1.00  0.00    +0.028 A 
ATOM     17  C   UNL     1     -32.967   5.779   7.985  1.00  0.00    +0.028 A 
ATOM     18  C   UNL     1     -33.597   6.073   5.288  1.00  0.00    +0.002 A 
ATOM     19  C   UNL     1     -32.304   6.735   7.210  1.00  0.00    +0.002 A 
ATOM     20  C   UNL     1     -32.618   6.881   5.862  1.00  0.00    +0.000 A 
ENDBRANCH  12  15
ENDBRANCH   1   5
TORSDOF 3
ENDMDL
MODEL 6
REMARK VINA RESULT:    -7.921      7.628     11.110
REMARK INTER + INTRA:          -9.071
REMARK INTER:                  -8.557
REMARK INTRA:                  -0.514
REMARK UNBOUND:                 0.239
REMARK SMILES CCNc1nc(C)nc2c1cnn2-c1ccccc1
REMARK SMILES IDX 3 1 2 3 1 4 4 5 10 6 5 7 11 8 9 9 6 10 12 11 13 12 8 13 7 14
REMARK SMILES IDX 14 15 15 16 19 17 16 18 18 19 17 20
REMARK H PARENT 3 2
ROOT
ATOM      1  N   UNL     1     -23.645   0.982   9.187  1.00  0.00    -0.370 N 
ATOM      2  H   UNL     1     -23.721  -0.007   8.978  1.00  0.00    +0.162 HD
ENDROOT
BRANCH   1   3
ATOM      3  C   UNL     1     -22.468   1.355   9.959  1.00  0.00    +0.111 C 
ATOM      4  C   UNL     1     -22.043   0.181  10.828  1.00  0.00    +0.027 C 
ENDBRANCH   1   3
BRANCH   1   5
ATOM      5  C   UNL     1     -24.854   1.524   9.632  1.00  0.00    +0.140 A 
ATOM      6  C   UNL     1     -25.724   0.815  10.468  1.00  0.00    +0.082 A 
ATOM      7  N   UNL     1     -25.230   2.767   9.250  1.00  0.00    -0.216 NA
ATOM      8  C   UNL     1     -25.766  -0.449  11.073  1.00  0.00    +0.150 A 
ATOM      9  C   UNL     1     -26.903   1.431  10.858  1.00  0.00    +0.168 A 
ATOM     10  C   UNL     1     -26.398   3.280   9.688  1.00  0.00    +0.130 A 
ATOM     11  N   UNL     1     -26.859  -0.642  11.810  1.00  0.00    -0.174 NA
ATOM     12  N   UNL     1     -27.574   0.519  11.675  1.00  0.00    -0.215 N 
ATOM     13  N   UNL     1     -27.286   2.670  10.491  1.00  0.00    -0.213 NA
ATOM     14  C   UNL     1     -26.759   4.648   9.194  1.00  0.00    +0.090 C 
BRANCH  12  15
ATOM     15  C   UNL     1     -28.832   0.651  12.342  1.00  0.00    +0.067 A 
ATOM     16  C   UNL     1     -30.048   0.642  11.647  1.00  0.00    +0.028 A 
ATOM     17  C   UNL     1     -28.853   0.793  13.741  1.00  0.00    +0.028 A 
ATOM     18  C   UNL     1     -31.258   0.774  12.337  1.00  0.00    +0.002 A 
ATOM     19  C   UNL     1     -30.065   0.924  14.425  1.00  0.00    +0.002 A 
ATOM     20  C   UNL     1     -31.266   0.915  13.723  1.00  0.00    +0.000 A 
ENDBRANCH  12  15
ENDBRANCH   1   5
TORSDOF 3
ENDMDL
MODEL 7
REMARK VINA RESULT:    -7.913      8.106     11.550
REMARK INTER + INTRA:          -9.062
REMARK INTER:                  -8.560
REMARK INTRA:                  -0.502
REMARK UNBOUND:                 0.239
REMARK SMILES CCNc1nc(C)nc2c1cnn2-c1ccccc1
REMARK SMILES IDX 3 1 2 3 1 4 4 5 10 6 5 7 11 8 9 9 6 10 12 11 13 12 8 13 7 14
REMARK SMILES IDX 14 15 15 16 19 17 16 18 18 19 17 20
REMARK H PARENT 3 2
ROOT
ATOM      1  N   UNL     1     -30.983   1.377   9.825  1.00  0.00    -0.370 N 
ATOM      2  H   UNL     1     -31.492   0.516   9.660  1.00  0.00    +0.162 HD
ENDROOT
BRANCH   1   3
ATOM      3  C   UNL     1     -30.106   1.356  10.987  1.00  0.00    +0.111 C 
ATOM      4  C   UNL     1     -30.808   0.643  12.134  1.00  0.00    +0.027 C 
ENDBRANCH   1   3
BRANCH   1   5
ATOM      5  C   UNL     1     -31.798   2.506   9.704  1.00  0.00    +0.140 A 
ATOM      6  C   UNL     1     -33.172   2.462   9.968  1.00  0.00    +0.082 A 
ATOM      7  N   UNL     1     -31.275   3.690   9.310  1.00  0.00    -0.216 NA
ATOM      8  C   UNL     1     -34.113   1.501  10.361  1.00  0.00    +0.150 A 
ATOM      9  C   UNL     1     -33.903   3.631   9.820  1.00  0.00    +0.168 A 
ATOM     10  C   UNL     1     -32.072   4.773   9.200  1.00  0.00    +0.130 A 
ATOM     11  N   UNL     1     -35.346   1.992  10.482  1.00  0.00    -0.174 NA
ATOM     12  N   UNL     1     -35.225   3.314  10.140  1.00  0.00    -0.215 N 
ATOM     13  N   UNL     1     -33.393   4.819   9.436  1.00  0.00    -0.213 NA
ATOM     14  C   UNL     1     -31.424   6.039   8.728  1.00  0.00    +0.090 C 
BRANCH  12  15
ATOM     15  C   UNL     1     -36.383   4.152  10.154  1.00  0.00    +0.067 A 
ATOM     16  C   UNL     1     -36.545   5.183  11.089  1.00  0.00    +0.028 A 
ATOM     17  C   UNL     1     -37.393   3.938   9.200  1.00  0.00    +0.028 A 
ATOM     18  C   UNL     1     -37.695   5.980  11.070  1.00  0.00    +0.002 A 
ATOM     19  C   UNL     1     -38.539   4.738   9.185  1.00  0.00    +0.002 A 
ATOM     20  C   UNL     1     -38.690   5.759  10.119  1.00  0.00    +0.000 A 
ENDBRANCH  12  15
ENDBRANCH   1   5
TORSDOF 3
ENDMDL
MODEL 8
REMARK VINA RESULT:    -7.664      9.765     10.586
REMARK INTER + INTRA:          -8.769
REMARK INTER:                  -8.261
REMARK INTRA:                  -0.508
REMARK UNBOUND:                 0.239
REMARK SMILES CCNc1nc(C)nc2c1cnn2-c1ccccc1
REMARK SMILES IDX 3 1 2 3 1 4 4 5 10 6 5 7 11 8 9 9 6 10 12 11 13 12 8 13 7 14
REMARK SMILES IDX 14 15 15 16 19 17 16 18 18 19 17 20
REMARK H PARENT 3 2
ROOT
ATOM      1  N   UNL     1     -36.219   6.254   9.534  1.00  0.00    -0.370 N 
ATOM      2  H   UNL     1     -35.833   6.650  10.383  1.00  0.00    +0.162 HD
ENDROOT
BRANCH   1   3
ATOM      3  C   UNL     1     -37.666   6.091   9.538  1.00  0.00    +0.111 C 
ATOM      4  C   UNL     1     -38.093   5.417  10.834  1.00  0.00    +0.027 C 
ENDBRANCH   1   3
BRANCH   1   5
ATOM      5  C   UNL     1     -35.489   5.151   9.083  1.00  0.00    +0.140 A 
ATOM      6  C   UNL     1     -34.755   4.339   9.956  1.00  0.00    +0.082 A 
ATOM      7  N   UNL     1     -35.460   4.839   7.767  1.00  0.00    -0.216 NA
ATOM      8  C   UNL     1     -34.482   4.290  11.330  1.00  0.00    +0.150 A 
ATOM      9  C   UNL     1     -34.058   3.267   9.420  1.00  0.00    +0.168 A 
ATOM     10  C   UNL     1     -34.753   3.770   7.345  1.00  0.00    +0.130 A 
ATOM     11  N   UNL     1     -33.697   3.270  11.673  1.00  0.00    -0.174 NA
ATOM     12  N   UNL     1     -33.423   2.633  10.490  1.00  0.00    -0.215 N 
ATOM     13  N   UNL     1     -34.027   2.940   8.113  1.00  0.00    -0.213 NA
ATOM     14  C   UNL     1     -34.744   3.510   5.870  1.00  0.00    +0.090 C 
BRANCH  12  15
ATOM     15  C   UNL     1     -32.582   1.477  10.493  1.00  0.00    +0.067 A 
ATOM     16  C   UNL     1     -33.090   0.187  10.692  1.00  0.00    +0.028 A 
ATOM     17  C   UNL     1     -31.200   1.637  10.290  1.00  0.00    +0.028 A 
ATOM     18  C   UNL     1     -32.232  -0.919  10.689  1.00  0.00    +0.002 A 
ATOM     19  C   UNL     1     -30.348   0.529  10.287  1.00  0.00    +0.002 A 
ATOM     20  C   UNL     1     -30.864  -0.748  10.486  1.00  0.00    +0.000 A 
ENDBRANCH  12  15
ENDBRANCH   1   5
TORSDOF 3
ENDMDL
MODEL 9
REMARK VINA RESULT:    -7.513      9.432     12.081
REMARK INTER + INTRA:          -8.592
REMARK INTER:                  -8.081
REMARK INTRA:                  -0.511
REMARK UNBOUND:                 0.239
REMARK SMILES CCNc1nc(C)nc2c1cnn2-c1ccccc1
REMARK SMILES IDX 3 1 2 3 1 4 4 5 10 6 5 7 11 8 9 9 6 10 12 11 13 12 8 13 7 14
REMARK SMILES IDX 14 15 15 16 19 17 16 18 18 19 17 20
REMARK H PARENT 3 2
ROOT
ATOM      1  N   UNL     1     -24.084   1.672  11.559  1.00  0.00    -0.370 N 
ATOM      2  H   UNL     1     -24.281   2.061  12.474  1.00  0.00    +0.162 HD
ENDROOT
BRANCH   1   3
ATOM      3  C   UNL     1     -23.738   2.653  10.539  1.00  0.00    +0.111 C 
ATOM      4  C   UNL     1     -24.649   3.864  10.675  1.00  0.00    +0.027 C 
ENDBRANCH   1   3
BRANCH   1   5
ATOM      5  C   UNL     1     -25.023   0.711  11.177  1.00  0.00    +0.140 A 
ATOM      6  C   UNL     1     -26.359   0.772  11.590  1.00  0.00    +0.082 A 
ATOM      7  N   UNL     1     -24.659  -0.331  10.394  1.00  0.00    -0.216 NA
ATOM      8  C   UNL     1     -27.152   1.611  12.386  1.00  0.00    +0.150 A 
ATOM      9  C   UNL     1     -27.221  -0.226  11.165  1.00  0.00    +0.168 A 
ATOM     10  C   UNL     1     -25.576  -1.251  10.030  1.00  0.00    +0.130 A 
ATOM     11  N   UNL     1     -28.422   1.217  12.461  1.00  0.00    -0.174 NA
ATOM     12  N   UNL     1     -28.471   0.071  11.711  1.00  0.00    -0.215 N 
ATOM     13  N   UNL     1     -26.874  -1.265  10.378  1.00  0.00    -0.213 NA
ATOM     14  C   UNL     1     -25.088  -2.391   9.190  1.00  0.00    +0.090 C 
BRANCH  12  15
ATOM     15  C   UNL     1     -29.710  -0.633  11.584  1.00  0.00    +0.067 A 
ATOM     16  C   UNL     1     -30.492  -0.559  10.424  1.00  0.00    +0.028 A 
ATOM     17  C   UNL     1     -30.160  -1.425  12.655  1.00  0.00    +0.028 A 
ATOM     18  C   UNL     1     -31.699  -1.262  10.340  1.00  0.00    +0.002 A 
ATOM     19  C   UNL     1     -31.365  -2.126  12.565  1.00  0.00    +0.002 A 
ATOM     20  C   UNL     1     -32.135  -2.044  11.408  1.00  0.00    +0.000 A 
ENDBRANCH  12  15
ENDBRANCH   1   5
TORSDOF 3
ENDMDL
