REMARK SMILES NCCc1ccc2ccc3ccccc3c2c1
REMARK SMILES IDX 2 1 1 2 3 5 4 6 17 7 5 8 16 9 6 10 15 11 7 12 14 13 10 14
REMARK SMILES IDX 8 15 13 16 11 17 9 18 12 19
REMARK H PARENT 1 3 1 4
ROOT
ATOM      1  C   UNL     1       3.743   0.913   0.289  1.00  0.00    +0.082 C 
ENDROOT
BRANCH   1   2
ATOM      2  N   UNL     1       4.943   1.730   0.114  1.00  0.00    -0.330 NA
ATOM      3  H   UNL     1       5.613   1.233  -0.472  1.00  0.00    +0.118 HD
ATOM      4  H   UNL     1       5.397   1.854   1.019  1.00  0.00    +0.118 HD
ENDBRANCH   1   2
BRANCH   1   5
ATOM      5  C   UNL     1       3.041   0.666  -1.050  1.00  0.00    +0.050 C 
BRANCH   5   6
ATOM      6  C   UNL     1       1.804  -0.183  -0.882  1.00  0.00    -0.046 A 
ATOM      7  C   UNL     1       0.574   0.411  -0.550  1.00  0.00    +0.013 A 
ATOM      8  C   UNL     1       1.867  -1.567  -1.025  1.00  0.00    +0.004 A 
ATOM      9  C   UNL     1      -0.615  -0.341  -0.360  1.00  0.00    -0.010 A 
ATOM     10  C   UNL     1       0.721  -2.338  -0.847  1.00  0.00    +0.009 A 
ATOM     11  C   UNL     1      -1.893   0.234  -0.021  1.00  0.00    -0.011 A 
ATOM     12  C   UNL     1      -0.510  -1.746  -0.519  1.00  0.00    -0.018 A 
ATOM     13  C   UNL     1      -2.120   1.622   0.164  1.00  0.00    +0.009 A 
ATOM     14  C   UNL     1      -3.014  -0.620   0.146  1.00  0.00    -0.018 A 
ATOM     15  C   UNL     1      -1.636  -2.554  -0.347  1.00  0.00    +0.009 A 
ATOM     16  C   UNL     1      -3.379   2.135   0.493  1.00  0.00    +0.001 A 
ATOM     17  C   UNL     1      -4.273  -0.092   0.476  1.00  0.00    +0.009 A 
ATOM     18  C   UNL     1      -2.870  -2.000  -0.020  1.00  0.00    +0.009 A 
ATOM     19  C   UNL     1      -4.456   1.277   0.649  1.00  0.00    +0.001 A 
ENDBRANCH   5   6
ENDBRANCH   1   5
TORSDOF 3
