REMARK SMILES CC(=O)c1ccc2c(c1)sc1ccccc12
REMARK SMILES IDX 1 1 2 2 3 3 4 4 9 5 5 6 8 7 6 8 7 9 10 10 16 11 11 12 15 13
REMARK SMILES IDX 12 14 14 15 13 16
REMARK H PARENT
ROOT
ATOM      1  C   UNL     1      -4.653   0.282   0.725  1.00  0.00    +0.093 C 
ATOM      2  C   UNL     1      -3.850   0.290  -0.550  1.00  0.00    +0.159 C 
ATOM      3  O   UNL     1      -4.401   0.377  -1.646  1.00  0.00    -0.295 OA
ENDROOT
BRANCH   2   4
ATOM      4  C   UNL     1      -2.361   0.190  -0.471  1.00  0.00    +0.019 A 
ATOM      5  C   UNL     1      -1.690   0.089   0.754  1.00  0.00    +0.031 A 
ATOM      6  C   UNL     1      -1.634   0.199  -1.660  1.00  0.00    +0.012 A 
ATOM      7  C   UNL     1      -0.280  -0.002   0.759  1.00  0.00    +0.036 A 
ATOM      8  C   UNL     1      -0.237   0.108  -1.644  1.00  0.00    +0.011 A 
ATOM      9  C   UNL     1       0.467   0.005  -0.418  1.00  0.00    +0.000 A 
ATOM     10  S   UNL     1       0.728  -0.132   2.142  1.00  0.00    -0.135 S 
ATOM     11  C   UNL     1       1.891  -0.099  -0.157  1.00  0.00    +0.000 A 
ATOM     12  C   UNL     1       2.166  -0.181   1.209  1.00  0.00    +0.035 A 
ATOM     13  C   UNL     1       2.992  -0.128  -1.053  1.00  0.00    +0.010 A 
ATOM     14  C   UNL     1       3.484  -0.289   1.696  1.00  0.00    +0.019 A 
ATOM     15  C   UNL     1       4.302  -0.235  -0.576  1.00  0.00    +0.001 A 
ATOM     16  C   UNL     1       4.543  -0.314   0.787  1.00  0.00    +0.002 A 
ENDBRANCH   2   4
TORSDOF 1
