REMARK SMILES O=C1C=C(c2ccccc2)CC1
REMARK SMILES IDX 1 1 2 2 12 3 11 4 4 5 3 6 5 7 6 8 10 9 7 10 9 11 8 12
REMARK H PARENT
ROOT
ATOM      1  O   UNL     1       3.866   1.687   0.190  1.00  0.00    -0.295 OA
ATOM      2  C   UNL     1       2.951   0.891   0.046  1.00  0.00    +0.156 C 
ATOM      3  C   UNL     1       3.111  -0.580  -0.165  1.00  0.00    +0.085 C 
ATOM      4  C   UNL     1       1.666  -1.062  -0.224  1.00  0.00    +0.044 C 
ATOM      5  C   UNL     1       0.819   0.179  -0.118  1.00  0.00    -0.037 C 
ATOM      6  C   UNL     1       1.541   1.295   0.051  1.00  0.00    +0.051 C 
ENDROOT
BRANCH   5   7
ATOM      7  C   UNL     1      -0.657   0.117  -0.184  1.00  0.00    -0.022 A 
ATOM      8  C   UNL     1      -1.332  -1.113  -0.119  1.00  0.00    +0.008 A 
ATOM      9  C   UNL     1      -1.436   1.277  -0.330  1.00  0.00    +0.008 A 
ATOM     10  C   UNL     1      -2.728  -1.181  -0.188  1.00  0.00    +0.001 A 
ATOM     11  C   UNL     1      -2.832   1.211  -0.400  1.00  0.00    +0.001 A 
ATOM     12  C   UNL     1      -3.478  -0.018  -0.328  1.00  0.00    +0.000 A 
ENDBRANCH   5   7
TORSDOF 1
