REMARK SMILES Cc1nc(Nc2ccccc2C)c2cnn(C)c2n1
REMARK SMILES IDX 5 1 4 3 16 4 15 5 18 6 14 7 19 8 13 9 2 10 3 11 17 12 1 13
REMARK SMILES IDX 6 14 11 15 7 16 10 17 8 18 9 19 12 20
REMARK H PARENT 5 2
ROOT
ATOM      1  N   UNL     1       1.026   0.662  -0.656  1.00  0.00    -0.339 N 
ATOM      2  H   UNL     1       1.339   1.612  -0.844  1.00  0.00    +0.168 HD
ENDROOT
BRANCH   1   3
ATOM      3  C   UNL     1      -0.358   0.736  -0.434  1.00  0.00    +0.145 A 
ATOM      4  N   UNL     1      -3.100  -1.291   0.381  1.00  0.00    -0.250 N 
ATOM      5  N   UNL     1      -2.220  -2.319   0.425  1.00  0.00    -0.179 NA
ATOM      6  C   UNL     1      -2.526  -0.090   0.063  1.00  0.00    +0.163 A 
ATOM      7  C   UNL     1      -1.055  -1.734   0.120  1.00  0.00    +0.149 A 
ATOM      8  N   UNL     1      -3.138   1.098  -0.069  1.00  0.00    -0.214 NA
ATOM      9  C   UNL     1      -1.178  -0.347  -0.103  1.00  0.00    +0.082 A 
ATOM     10  C   UNL     1      -2.280   2.074  -0.420  1.00  0.00    +0.130 A 
ATOM     11  N   UNL     1      -0.945   1.947  -0.603  1.00  0.00    -0.215 NA
ATOM     12  C   UNL     1      -4.494  -1.541   0.650  1.00  0.00    +0.176 C 
ATOM     13  C   UNL     1      -2.852   3.449  -0.584  1.00  0.00    +0.090 C 
ENDBRANCH   1   3
BRANCH   1  14
ATOM     14  C   UNL     1       1.987  -0.029   0.118  1.00  0.00    +0.043 A 
ATOM     15  C   UNL     1       3.209  -0.408  -0.475  1.00  0.00    -0.028 A 
ATOM     16  C   UNL     1       1.803  -0.255   1.491  1.00  0.00    +0.026 A 
ATOM     17  C   UNL     1       4.191  -1.043   0.302  1.00  0.00    +0.005 A 
ATOM     18  C   UNL     1       2.785  -0.889   2.253  1.00  0.00    +0.002 A 
ATOM     19  C   UNL     1       3.977  -1.287   1.657  1.00  0.00    +0.000 A 
ATOM     20  C   UNL     1       3.470  -0.160  -1.936  1.00  0.00    +0.046 C 
ENDBRANCH   1  14
TORSDOF 2
