REMARK SMILES Cn1ncc2c(Nc3cccc(Cl)c3)ncnc21
REMARK SMILES IDX 7 1 6 3 2 4 3 5 18 6 4 7 17 8 5 9 16 10 15 11 1 12 8 13
REMARK SMILES IDX 14 14 9 15 12 16 10 17 11 18 13 19
REMARK H PARENT 7 2
ROOT
ATOM      1  N   UNL     1       0.833   0.290   0.616  1.00  0.00    -0.339 N 
ATOM      2  H   UNL     1       0.678   0.564   1.576  1.00  0.00    +0.168 HD
ENDROOT
BRANCH   1   3
ATOM      3  C   UNL     1      -0.354   0.121  -0.113  1.00  0.00    +0.144 A 
ATOM      4  N   UNL     1      -3.810   0.394   0.507  1.00  0.00    -0.250 N 
ATOM      5  N   UNL     1      -3.464   0.738   1.770  1.00  0.00    -0.179 NA
ATOM      6  C   UNL     1      -2.736   0.136  -0.302  1.00  0.00    +0.163 A 
ATOM      7  C   UNL     1      -2.128   0.692   1.744  1.00  0.00    +0.149 A 
ATOM      8  N   UNL     1      -2.762  -0.226  -1.595  1.00  0.00    -0.217 NA
ATOM      9  C   UNL     1      -1.611   0.324   0.482  1.00  0.00    +0.082 A 
ATOM     10  C   UNL     1      -1.520  -0.396  -2.075  1.00  0.00    +0.226 A 
ATOM     11  N   UNL     1      -0.351  -0.246  -1.421  1.00  0.00    -0.218 NA
ATOM     12  C   UNL     1      -5.203   0.333   0.145  1.00  0.00    +0.176 C 
ENDBRANCH   1   3
BRANCH   1  13
ATOM     13  C   UNL     1       2.191   0.155   0.273  1.00  0.00    +0.041 A 
ATOM     14  C   UNL     1       2.647  -0.214  -0.997  1.00  0.00    +0.046 A 
ATOM     15  C   UNL     1       3.156   0.406   1.266  1.00  0.00    +0.026 A 
ATOM     16  C   UNL     1       4.015  -0.328  -1.262  1.00  0.00    +0.043 A 
ATOM     17  C   UNL     1       4.525   0.292   1.002  1.00  0.00    +0.004 A 
ATOM     18  C   UNL     1       4.956  -0.076  -0.268  1.00  0.00    +0.020 A 
ATOM     19 Cl   UNL     1       4.546  -0.784  -2.835  1.00  0.00    -0.084 Cl
ENDBRANCH   1  13
TORSDOF 2
