MODEL 1
REMARK VINA RESULT:    -9.082      0.000      0.000
REMARK INTER + INTRA:         -11.783
REMARK INTER:                 -11.736
REMARK INTRA:                  -0.046
REMARK UNBOUND:                -0.046
REMARK SMILES CCCCNc1ncnc2c1cnn2-c1ccccc1
REMARK SMILES IDX 4 1 3 2 2 3 1 4 5 5 6 7 11 8 7 9 12 10 10 11 8 12 13 13
REMARK SMILES IDX 14 14 9 15 15 16 16 17 20 18 17 19 19 20 18 21
REMARK H PARENT 5 6
ROOT
ATOM      1  C   UNL     1     -25.633   4.132   9.141  1.00  0.00    +0.114 C 
ENDROOT
BRANCH   1   2
ATOM      2  C   UNL     1     -24.725   4.437  10.337  1.00  0.00    +0.021 C 
BRANCH   2   3
ATOM      3  C   UNL     1     -24.926   3.465  11.503  1.00  0.00    -0.002 C 
ATOM      4  C   UNL     1     -26.340   3.553  12.059  1.00  0.00    +0.004 C 
ENDBRANCH   2   3
ENDBRANCH   1   2
BRANCH   1   5
ATOM      5  N   UNL     1     -25.394   5.083   8.064  1.00  0.00    -0.369 N 
ATOM      6  H   UNL     1     -25.139   4.672   7.173  1.00  0.00    +0.162 HD
BRANCH   5   7
ATOM      7  C   UNL     1     -26.351   6.091   7.923  1.00  0.00    +0.140 A 
ATOM      8  C   UNL     1     -26.084   7.280   7.231  1.00  0.00    +0.082 A 
ATOM      9  N   UNL     1     -27.581   5.950   8.471  1.00  0.00    -0.219 NA
ATOM     10  C   UNL     1     -24.997   7.848   6.550  1.00  0.00    +0.150 A 
ATOM     11  C   UNL     1     -27.092   8.229   7.138  1.00  0.00    +0.168 A 
ATOM     12  C   UNL     1     -28.478   6.940   8.322  1.00  0.00    +0.226 A 
ATOM     13  N   UNL     1     -25.268   9.048   6.039  1.00  0.00    -0.174 NA
ATOM     14  N   UNL     1     -26.566   9.295   6.405  1.00  0.00    -0.215 N 
ATOM     15  N   UNL     1     -28.325   8.101   7.671  1.00  0.00    -0.216 NA
BRANCH  14  16
ATOM     16  C   UNL     1     -27.183  10.525   6.019  1.00  0.00    +0.067 A 
ATOM     17  C   UNL     1     -26.487  11.519   5.319  1.00  0.00    +0.028 A 
ATOM     18  C   UNL     1     -28.532  10.748   6.350  1.00  0.00    +0.028 A 
ATOM     19  C   UNL     1     -27.127  12.711   4.961  1.00  0.00    +0.002 A 
ATOM     20  C   UNL     1     -29.167  11.940   5.988  1.00  0.00    +0.002 A 
ATOM     21  C   UNL     1     -28.464  12.920   5.294  1.00  0.00    +0.000 A 
ENDBRANCH  14  16
ENDBRANCH   5   7
ENDBRANCH   1   5
TORSDOF 5
ENDMDL
MODEL 2
REMARK VINA RESULT:    -8.752      1.166      7.211
REMARK INTER + INTRA:         -11.356
REMARK INTER:                 -10.878
REMARK INTRA:                  -0.478
REMARK UNBOUND:                -0.046
REMARK SMILES CCCCNc1ncnc2c1cnn2-c1ccccc1
REMARK SMILES IDX 4 1 3 2 2 3 1 4 5 5 6 7 11 8 7 9 12 10 10 11 8 12 13 13
REMARK SMILES IDX 14 14 9 15 15 16 16 17 20 18 17 19 19 20 18 21
REMARK H PARENT 5 6
ROOT
ATOM      1  C   UNL     1     -26.858  10.011   4.797  1.00  0.00    +0.114 C 
ENDROOT
BRANCH   1   2
ATOM      2  C   UNL     1     -26.333  11.343   5.343  1.00  0.00    +0.021 C 
BRANCH   2   3
ATOM      3  C   UNL     1     -27.345  12.484   5.206  1.00  0.00    -0.002 C 
ATOM      4  C   UNL     1     -28.722  12.064   5.698  1.00  0.00    +0.004 C 
ENDBRANCH   2   3
ENDBRANCH   1   2
BRANCH   1   5
ATOM      5  N   UNL     1     -26.143   8.895   5.402  1.00  0.00    -0.369 N 
ATOM      6  H   UNL     1     -25.174   9.078   5.635  1.00  0.00    +0.162 HD
BRANCH   5   7
ATOM      7  C   UNL     1     -26.815   8.232   6.432  1.00  0.00    +0.140 A 
ATOM      8  C   UNL     1     -26.282   7.098   7.060  1.00  0.00    +0.082 A 
ATOM      9  N   UNL     1     -28.027   8.666   6.851  1.00  0.00    -0.219 NA
ATOM     10  C   UNL     1     -25.124   6.314   6.950  1.00  0.00    +0.150 A 
ATOM     11  C   UNL     1     -27.016   6.501   8.075  1.00  0.00    +0.168 A 
ATOM     12  C   UNL     1     -28.650   8.004   7.841  1.00  0.00    +0.226 A 
ATOM     13  N   UNL     1     -25.088   5.308   7.823  1.00  0.00    -0.174 NA
ATOM     14  N   UNL     1     -26.262   5.414   8.521  1.00  0.00    -0.215 N 
ATOM     15  N   UNL     1     -28.221   6.926   8.510  1.00  0.00    -0.216 NA
BRANCH  14  16
ATOM     16  C   UNL     1     -26.555   4.466   9.551  1.00  0.00    +0.067 A 
ATOM     17  C   UNL     1     -25.769   4.355  10.705  1.00  0.00    +0.028 A 
ATOM     18  C   UNL     1     -27.667   3.617   9.404  1.00  0.00    +0.028 A 
ATOM     19  C   UNL     1     -26.089   3.413  11.690  1.00  0.00    +0.002 A 
ATOM     20  C   UNL     1     -27.982   2.679  10.392  1.00  0.00    +0.002 A 
ATOM     21  C   UNL     1     -27.193   2.577  11.533  1.00  0.00    +0.000 A 
ENDBRANCH  14  16
ENDBRANCH   5   7
ENDBRANCH   1   5
TORSDOF 5
ENDMDL
MODEL 3
REMARK VINA RESULT:    -8.651      0.994      2.106
REMARK INTER + INTRA:         -11.226
REMARK INTER:                 -11.070
REMARK INTRA:                  -0.156
REMARK UNBOUND:                -0.046
REMARK SMILES CCCCNc1ncnc2c1cnn2-c1ccccc1
REMARK SMILES IDX 4 1 3 2 2 3 1 4 5 5 6 7 11 8 7 9 12 10 10 11 8 12 13 13
REMARK SMILES IDX 14 14 9 15 15 16 16 17 20 18 17 19 19 20 18 21
REMARK H PARENT 5 6
ROOT
ATOM      1  C   UNL     1     -25.968   3.850   9.625  1.00  0.00    +0.114 C 
ENDROOT
BRANCH   1   2
ATOM      2  C   UNL     1     -26.123   3.916  11.147  1.00  0.00    +0.021 C 
BRANCH   2   3
ATOM      3  C   UNL     1     -26.250   2.535  11.796  1.00  0.00    -0.002 C 
ATOM      4  C   UNL     1     -27.470   2.458  12.701  1.00  0.00    +0.004 C 
ENDBRANCH   2   3
ENDBRANCH   1   2
BRANCH   1   5
ATOM      5  N   UNL     1     -27.031   4.600   8.970  1.00  0.00    -0.369 N 
ATOM      6  H   UNL     1     -27.874   4.722   9.519  1.00  0.00    +0.162 HD
BRANCH   5   7
ATOM      7  C   UNL     1     -26.639   5.783   8.339  1.00  0.00    +0.140 A 
ATOM      8  C   UNL     1     -27.556   6.790   8.007  1.00  0.00    +0.082 A 
ATOM      9  N   UNL     1     -25.341   5.987   8.013  1.00  0.00    -0.219 NA
ATOM     10  C   UNL     1     -28.938   6.998   8.125  1.00  0.00    +0.150 A 
ATOM     11  C   UNL     1     -27.080   7.933   7.382  1.00  0.00    +0.168 A 
ATOM     12  C   UNL     1     -24.996   7.134   7.402  1.00  0.00    +0.226 A 
ATOM     13  N   UNL     1     -29.334   8.174   7.642  1.00  0.00    -0.174 NA
ATOM     14  N   UNL     1     -28.186   8.759   7.173  1.00  0.00    -0.215 N 
ATOM     15  N   UNL     1     -25.790   8.157   7.057  1.00  0.00    -0.216 NA
BRANCH  14  16
ATOM     16  C   UNL     1     -28.254  10.053   6.569  1.00  0.00    +0.067 A 
ATOM     17  C   UNL     1     -27.210  10.566   5.789  1.00  0.00    +0.028 A 
ATOM     18  C   UNL     1     -29.405  10.839   6.762  1.00  0.00    +0.028 A 
ATOM     19  C   UNL     1     -27.315  11.839   5.217  1.00  0.00    +0.002 A 
ATOM     20  C   UNL     1     -29.505  12.109   6.187  1.00  0.00    +0.002 A 
ATOM     21  C   UNL     1     -28.460  12.608   5.415  1.00  0.00    +0.000 A 
ENDBRANCH  14  16
ENDBRANCH   5   7
ENDBRANCH   1   5
TORSDOF 5
ENDMDL
MODEL 4
REMARK VINA RESULT:    -8.319      1.366      7.267
REMARK INTER + INTRA:         -10.797
REMARK INTER:                 -10.563
REMARK INTRA:                  -0.234
REMARK UNBOUND:                -0.046
REMARK SMILES CCCCNc1ncnc2c1cnn2-c1ccccc1
REMARK SMILES IDX 4 1 3 2 2 3 1 4 5 5 6 7 11 8 7 9 12 10 10 11 8 12 13 13
REMARK SMILES IDX 14 14 9 15 15 16 16 17 20 18 17 19 19 20 18 21
REMARK H PARENT 5 6
ROOT
ATOM      1  C   UNL     1     -28.125  10.744   6.792  1.00  0.00    +0.114 C 
ENDROOT
BRANCH   1   2
ATOM      2  C   UNL     1     -29.267  11.607   6.244  1.00  0.00    +0.021 C 
BRANCH   2   3
ATOM      3  C   UNL     1     -30.367  11.868   7.277  1.00  0.00    -0.002 C 
ATOM      4  C   UNL     1     -31.323  10.689   7.376  1.00  0.00    +0.004 C 
ENDBRANCH   2   3
ENDBRANCH   1   2
BRANCH   1   5
ATOM      5  N   UNL     1     -27.611   9.860   5.755  1.00  0.00    -0.369 N 
ATOM      6  H   UNL     1     -27.279  10.324   4.917  1.00  0.00    +0.162 HD
BRANCH   5   7
ATOM      7  C   UNL     1     -26.732   8.865   6.188  1.00  0.00    +0.140 A 
ATOM      8  C   UNL     1     -27.129   7.855   7.077  1.00  0.00    +0.082 A 
ATOM      9  N   UNL     1     -25.446   8.854   5.764  1.00  0.00    -0.219 NA
ATOM     10  C   UNL     1     -28.298   7.495   7.764  1.00  0.00    +0.150 A 
ATOM     11  C   UNL     1     -26.191   6.906   7.455  1.00  0.00    +0.168 A 
ATOM     12  C   UNL     1     -24.624   7.886   6.203  1.00  0.00    +0.226 A 
ATOM     13  N   UNL     1     -28.151   6.400   8.508  1.00  0.00    -0.174 NA
ATOM     14  N   UNL     1     -26.844   6.032   8.327  1.00  0.00    -0.215 N 
ATOM     15  N   UNL     1     -24.909   6.876   7.036  1.00  0.00    -0.216 NA
BRANCH  14  16
ATOM     16  C   UNL     1     -26.340   4.877   9.003  1.00  0.00    +0.067 A 
ATOM     17  C   UNL     1     -27.005   3.645   8.968  1.00  0.00    +0.028 A 
ATOM     18  C   UNL     1     -25.137   4.978   9.726  1.00  0.00    +0.028 A 
ATOM     19  C   UNL     1     -26.478   2.539   9.645  1.00  0.00    +0.002 A 
ATOM     20  C   UNL     1     -24.616   3.869  10.399  1.00  0.00    +0.002 A 
ATOM     21  C   UNL     1     -25.286   2.650  10.358  1.00  0.00    +0.000 A 
ENDBRANCH  14  16
ENDBRANCH   5   7
ENDBRANCH   1   5
TORSDOF 5
ENDMDL
MODEL 5
REMARK VINA RESULT:    -7.857      3.420      4.961
REMARK INTER + INTRA:         -10.200
REMARK INTER:                  -9.998
REMARK INTRA:                  -0.202
REMARK UNBOUND:                -0.046
REMARK SMILES CCCCNc1ncnc2c1cnn2-c1ccccc1
REMARK SMILES IDX 4 1 3 2 2 3 1 4 5 5 6 7 11 8 7 9 12 10 10 11 8 12 13 13
REMARK SMILES IDX 14 14 9 15 15 16 16 17 20 18 17 19 19 20 18 21
REMARK H PARENT 5 6
ROOT
ATOM      1  C   UNL     1     -32.704   4.941   8.506  1.00  0.00    +0.114 C 
ENDROOT
BRANCH   1   2
ATOM      2  C   UNL     1     -32.938   3.987   9.682  1.00  0.00    +0.021 C 
BRANCH   2   3
ATOM      3  C   UNL     1     -33.604   4.669  10.880  1.00  0.00    -0.002 C 
ATOM      4  C   UNL     1     -35.078   4.938  10.616  1.00  0.00    +0.004 C 
ENDBRANCH   2   3
ENDBRANCH   1   2
BRANCH   1   5
ATOM      5  N   UNL     1     -31.537   5.778   8.754  1.00  0.00    -0.369 N 
ATOM      6  H   UNL     1     -30.650   5.288   8.770  1.00  0.00    +0.162 HD
BRANCH   5   7
ATOM      7  C   UNL     1     -31.472   6.960   8.013  1.00  0.00    +0.140 A 
ATOM      8  C   UNL     1     -30.264   7.638   7.797  1.00  0.00    +0.082 A 
ATOM      9  N   UNL     1     -32.595   7.501   7.484  1.00  0.00    -0.219 NA
ATOM     10  C   UNL     1     -28.917   7.473   8.154  1.00  0.00    +0.150 A 
ATOM     11  C   UNL     1     -30.289   8.806   7.049  1.00  0.00    +0.168 A 
ATOM     12  C   UNL     1     -32.499   8.642   6.780  1.00  0.00    +0.226 A 
ATOM     13  N   UNL     1     -28.126   8.430   7.670  1.00  0.00    -0.174 NA
ATOM     14  N   UNL     1     -28.972   9.265   6.988  1.00  0.00    -0.215 N 
ATOM     15  N   UNL     1     -31.397   9.354   6.508  1.00  0.00    -0.216 NA
BRANCH  14  16
ATOM     16  C   UNL     1     -28.441  10.424   6.339  1.00  0.00    +0.067 A 
ATOM     17  C   UNL     1     -29.220  11.563   6.096  1.00  0.00    +0.028 A 
ATOM     18  C   UNL     1     -27.095  10.424   5.932  1.00  0.00    +0.028 A 
ATOM     19  C   UNL     1     -28.663  12.676   5.458  1.00  0.00    +0.002 A 
ATOM     20  C   UNL     1     -26.544  11.539   5.295  1.00  0.00    +0.002 A 
ATOM     21  C   UNL     1     -27.327  12.665   5.058  1.00  0.00    +0.000 A 
ENDBRANCH  14  16
ENDBRANCH   5   7
ENDBRANCH   1   5
TORSDOF 5
ENDMDL
MODEL 6
REMARK VINA RESULT:    -7.667      5.713      9.408
REMARK INTER + INTRA:          -9.954
REMARK INTER:                  -9.522
REMARK INTRA:                  -0.432
REMARK UNBOUND:                -0.046
REMARK SMILES CCCCNc1ncnc2c1cnn2-c1ccccc1
REMARK SMILES IDX 4 1 3 2 2 3 1 4 5 5 6 7 11 8 7 9 12 10 10 11 8 12 13 13
REMARK SMILES IDX 14 14 9 15 15 16 16 17 20 18 17 19 19 20 18 21
REMARK H PARENT 5 6
ROOT
ATOM      1  C   UNL     1     -31.204   9.578   6.835  1.00  0.00    +0.114 C 
ENDROOT
BRANCH   1   2
ATOM      2  C   UNL     1     -29.884  10.330   7.041  1.00  0.00    +0.021 C 
BRANCH   2   3
ATOM      3  C   UNL     1     -30.015  11.838   6.814  1.00  0.00    -0.002 C 
ATOM      4  C   UNL     1     -29.032  12.326   5.760  1.00  0.00    +0.004 C 
ENDBRANCH   2   3
ENDBRANCH   1   2
BRANCH   1   5
ATOM      5  N   UNL     1     -30.963   8.292   6.194  1.00  0.00    -0.369 N 
ATOM      6  H   UNL     1     -30.097   7.835   6.455  1.00  0.00    +0.162 HD
BRANCH   5   7
ATOM      7  C   UNL     1     -32.043   7.407   6.189  1.00  0.00    +0.140 A 
ATOM      8  C   UNL     1     -32.324   6.567   7.277  1.00  0.00    +0.082 A 
ATOM      9  N   UNL     1     -32.856   7.323   5.110  1.00  0.00    -0.219 NA
ATOM     10  C   UNL     1     -31.771   6.304   8.538  1.00  0.00    +0.150 A 
ATOM     11  C   UNL     1     -33.417   5.718   7.187  1.00  0.00    +0.168 A 
ATOM     12  C   UNL     1     -33.885   6.458   5.134  1.00  0.00    +0.226 A 
ATOM     13  N   UNL     1     -32.446   5.383   9.225  1.00  0.00    -0.174 NA
ATOM     14  N   UNL     1     -33.467   5.010   8.390  1.00  0.00    -0.215 N 
ATOM     15  N   UNL     1     -34.242   5.629   6.123  1.00  0.00    -0.216 NA
BRANCH  14  16
ATOM     16  C   UNL     1     -34.397   4.012   8.820  1.00  0.00    +0.067 A 
ATOM     17  C   UNL     1     -35.766   4.276   8.947  1.00  0.00    +0.028 A 
ATOM     18  C   UNL     1     -33.924   2.723   9.126  1.00  0.00    +0.028 A 
ATOM     19  C   UNL     1     -36.643   3.272   9.372  1.00  0.00    +0.002 A 
ATOM     20  C   UNL     1     -34.804   1.724   9.550  1.00  0.00    +0.002 A 
ATOM     21  C   UNL     1     -36.163   1.998   9.672  1.00  0.00    +0.000 A 
ENDBRANCH  14  16
ENDBRANCH   5   7
ENDBRANCH   1   5
TORSDOF 5
ENDMDL
MODEL 7
REMARK VINA RESULT:    -7.574      6.255      8.898
REMARK INTER + INTRA:          -9.834
REMARK INTER:                  -9.177
REMARK INTRA:                  -0.656
REMARK UNBOUND:                -0.046
REMARK SMILES CCCCNc1ncnc2c1cnn2-c1ccccc1
REMARK SMILES IDX 4 1 3 2 2 3 1 4 5 5 6 7 11 8 7 9 12 10 10 11 8 12 13 13
REMARK SMILES IDX 14 14 9 15 15 16 16 17 20 18 17 19 19 20 18 21
REMARK H PARENT 5 6
ROOT
ATOM      1  C   UNL     1     -22.952   1.369  10.108  1.00  0.00    +0.114 C 
ENDROOT
BRANCH   1   2
ATOM      2  C   UNL     1     -22.755   0.156  11.022  1.00  0.00    +0.021 C 
BRANCH   2   3
ATOM      3  C   UNL     1     -22.807  -1.175  10.266  1.00  0.00    -0.002 C 
ATOM      4  C   UNL     1     -21.667  -2.092  10.683  1.00  0.00    +0.004 C 
ENDBRANCH   2   3
ENDBRANCH   1   2
BRANCH   1   5
ATOM      5  N   UNL     1     -24.081   1.155   9.212  1.00  0.00    -0.369 N 
ATOM      6  H   UNL     1     -24.228   0.194   8.925  1.00  0.00    +0.162 HD
BRANCH   5   7
ATOM      7  C   UNL     1     -25.273   1.783   9.579  1.00  0.00    +0.140 A 
ATOM      8  C   UNL     1     -26.400   1.058   9.993  1.00  0.00    +0.082 A 
ATOM      9  N   UNL     1     -25.381   3.132   9.533  1.00  0.00    -0.219 NA
ATOM     10  C   UNL     1     -26.745  -0.291  10.166  1.00  0.00    +0.150 A 
ATOM     11  C   UNL     1     -27.544   1.761  10.340  1.00  0.00    +0.168 A 
ATOM     12  C   UNL     1     -26.544   3.705   9.888  1.00  0.00    +0.226 A 
ATOM     13  N   UNL     1     -27.991  -0.460  10.607  1.00  0.00    -0.174 NA
ATOM     14  N   UNL     1     -28.496   0.809  10.711  1.00  0.00    -0.215 N 
ATOM     15  N   UNL     1     -27.666   3.105  10.308  1.00  0.00    -0.216 NA
BRANCH  14  16
ATOM     16  C   UNL     1     -29.842   0.995  11.157  1.00  0.00    +0.067 A 
ATOM     17  C   UNL     1     -30.222   0.772  12.487  1.00  0.00    +0.028 A 
ATOM     18  C   UNL     1     -30.817   1.415  10.235  1.00  0.00    +0.028 A 
ATOM     19  C   UNL     1     -31.550   0.964  12.883  1.00  0.00    +0.002 A 
ATOM     20  C   UNL     1     -32.142   1.606  10.637  1.00  0.00    +0.002 A 
ATOM     21  C   UNL     1     -32.508   1.381  11.960  1.00  0.00    +0.000 A 
ENDBRANCH  14  16
ENDBRANCH   5   7
ENDBRANCH   1   5
TORSDOF 5
ENDMDL
MODEL 8
REMARK VINA RESULT:    -7.567      3.151      6.333
REMARK INTER + INTRA:          -9.825
REMARK INTER:                  -9.310
REMARK INTRA:                  -0.515
REMARK UNBOUND:                -0.046
REMARK SMILES CCCCNc1ncnc2c1cnn2-c1ccccc1
REMARK SMILES IDX 4 1 3 2 2 3 1 4 5 5 6 7 11 8 7 9 12 10 10 11 8 12 13 13
REMARK SMILES IDX 14 14 9 15 15 16 16 17 20 18 17 19 19 20 18 21
REMARK H PARENT 5 6
ROOT
ATOM      1  C   UNL     1     -26.298   9.974   5.990  1.00  0.00    +0.114 C 
ENDROOT
BRANCH   1   2
ATOM      2  C   UNL     1     -25.829   8.548   5.684  1.00  0.00    +0.021 C 
BRANCH   2   3
ATOM      3  C   UNL     1     -24.680   8.091   6.587  1.00  0.00    -0.002 C 
ATOM      4  C   UNL     1     -25.037   6.813   7.333  1.00  0.00    +0.004 C 
ENDBRANCH   2   3
ENDBRANCH   1   2
BRANCH   1   5
ATOM      5  N   UNL     1     -27.049  10.007   7.238  1.00  0.00    -0.369 N 
ATOM      6  H   UNL     1     -26.868  10.810   7.830  1.00  0.00    +0.162 HD
BRANCH   5   7
ATOM      7  C   UNL     1     -28.414   9.730   7.132  1.00  0.00    +0.140 A 
ATOM      8  C   UNL     1     -28.964   8.519   7.575  1.00  0.00    +0.082 A 
ATOM      9  N   UNL     1     -29.256  10.633   6.577  1.00  0.00    -0.219 NA
ATOM     10  C   UNL     1     -28.498   7.335   8.166  1.00  0.00    +0.150 A 
ATOM     11  C   UNL     1     -30.331   8.326   7.431  1.00  0.00    +0.168 A 
ATOM     12  C   UNL     1     -30.563  10.334   6.485  1.00  0.00    +0.226 A 
ATOM     13  N   UNL     1     -29.467   6.454   8.408  1.00  0.00    -0.174 NA
ATOM     14  N   UNL     1     -30.608   7.059   7.949  1.00  0.00    -0.215 N 
ATOM     15  N   UNL     1     -31.185   9.218   6.888  1.00  0.00    -0.216 NA
BRANCH  14  16
ATOM     16  C   UNL     1     -31.857   6.370   8.049  1.00  0.00    +0.067 A 
ATOM     17  C   UNL     1     -32.836   6.456   7.052  1.00  0.00    +0.028 A 
ATOM     18  C   UNL     1     -32.113   5.579   9.184  1.00  0.00    +0.028 A 
ATOM     19  C   UNL     1     -34.046   5.767   7.188  1.00  0.00    +0.002 A 
ATOM     20  C   UNL     1     -33.323   4.892   9.315  1.00  0.00    +0.002 A 
ATOM     21  C   UNL     1     -34.289   4.987   8.317  1.00  0.00    +0.000 A 
ENDBRANCH  14  16
ENDBRANCH   5   7
ENDBRANCH   1   5
TORSDOF 5
ENDMDL
MODEL 9
REMARK VINA RESULT:    -7.529      5.476      7.419
REMARK INTER + INTRA:          -9.776
REMARK INTER:                  -9.442
REMARK INTRA:                  -0.334
REMARK UNBOUND:                -0.046
REMARK SMILES CCCCNc1ncnc2c1cnn2-c1ccccc1
REMARK SMILES IDX 4 1 3 2 2 3 1 4 5 5 6 7 11 8 7 9 12 10 10 11 8 12 13 13
REMARK SMILES IDX 14 14 9 15 15 16 16 17 20 18 17 19 19 20 18 21
REMARK H PARENT 5 6
ROOT
ATOM      1  C   UNL     1     -35.777   3.828   9.723  1.00  0.00    +0.114 C 
ENDROOT
BRANCH   1   2
ATOM      2  C   UNL     1     -35.601   4.861  10.841  1.00  0.00    +0.021 C 
BRANCH   2   3
ATOM      3  C   UNL     1     -36.676   5.951  10.819  1.00  0.00    -0.002 C 
ATOM      4  C   UNL     1     -38.069   5.358  10.965  1.00  0.00    +0.004 C 
ENDBRANCH   2   3
ENDBRANCH   1   2
BRANCH   1   5
ATOM      5  N   UNL     1     -34.546   3.695   8.954  1.00  0.00    -0.369 N 
ATOM      6  H   UNL     1     -34.494   2.875   8.361  1.00  0.00    +0.162 HD
BRANCH   5   7
ATOM      7  C   UNL     1     -34.117   4.849   8.294  1.00  0.00    +0.140 A 
ATOM      8  C   UNL     1     -32.829   5.374   8.473  1.00  0.00    +0.082 A 
ATOM      9  N   UNL     1     -34.951   5.512   7.459  1.00  0.00    -0.219 NA
ATOM     10  C   UNL     1     -31.686   5.054   9.221  1.00  0.00    +0.150 A 
ATOM     11  C   UNL     1     -32.485   6.524   7.779  1.00  0.00    +0.168 A 
ATOM     12  C   UNL     1     -34.509   6.623   6.843  1.00  0.00    +0.226 A 
ATOM     13  N   UNL     1     -30.676   5.900   9.023  1.00  0.00    -0.174 NA
ATOM     14  N   UNL     1     -31.167   6.820   8.133  1.00  0.00    -0.215 N 
ATOM     15  N   UNL     1     -33.300   7.193   6.937  1.00  0.00    -0.216 NA
BRANCH  14  16
ATOM     16  C   UNL     1     -30.329   7.896   7.703  1.00  0.00    +0.067 A 
ATOM     17  C   UNL     1     -30.854   9.121   7.271  1.00  0.00    +0.028 A 
ATOM     18  C   UNL     1     -28.933   7.723   7.715  1.00  0.00    +0.028 A 
ATOM     19  C   UNL     1     -29.999  10.149   6.858  1.00  0.00    +0.002 A 
ATOM     20  C   UNL     1     -28.084   8.754   7.301  1.00  0.00    +0.002 A 
ATOM     21  C   UNL     1     -28.618   9.966   6.873  1.00  0.00    +0.000 A 
ENDBRANCH  14  16
ENDBRANCH   5   7
ENDBRANCH   1   5
TORSDOF 5
ENDMDL
