MODEL 1
REMARK VINA RESULT:   -10.097      0.000      0.000
REMARK INTER + INTRA:         -12.177
REMARK INTER:                 -11.868
REMARK INTRA:                  -0.309
REMARK UNBOUND:                -0.309
REMARK SMILES CCOC(=O)c1ccc2ccc3ccccc3c2c1
REMARK SMILES IDX 3 1 2 2 1 3 4 4 5 5 6 6 19 7 7 8 18 9 8 10 17 11 9 12 16 13
REMARK SMILES IDX 12 14 10 15 15 16 13 17 11 18 14 19
REMARK H PARENT
ROOT
ATOM      1  O   UNL     1     -25.583   4.437   8.444  1.00  0.00    -0.462 OA
ENDROOT
BRANCH   1   2
ATOM      2  C   UNL     1     -25.561   3.485   9.517  1.00  0.00    +0.230 C 
ATOM      3  C   UNL     1     -25.030   4.133  10.782  1.00  0.00    +0.049 C 
ENDBRANCH   1   2
BRANCH   1   4
ATOM      4  C   UNL     1     -26.697   5.205   8.361  1.00  0.00    +0.338 C 
ATOM      5  O   UNL     1     -27.809   4.901   8.762  1.00  0.00    -0.246 OA
BRANCH   4   6
ATOM      6  C   UNL     1     -26.389   6.506   7.704  1.00  0.00    +0.060 A 
ATOM      7  C   UNL     1     -27.434   7.431   7.539  1.00  0.00    +0.025 A 
ATOM      8  C   UNL     1     -25.112   6.832   7.254  1.00  0.00    +0.016 A 
ATOM      9  C   UNL     1     -27.243   8.696   6.927  1.00  0.00    -0.010 A 
ATOM     10  C   UNL     1     -24.888   8.068   6.648  1.00  0.00    +0.009 A 
ATOM     11  C   UNL     1     -28.288   9.670   6.740  1.00  0.00    -0.011 A 
ATOM     12  C   UNL     1     -25.930   8.995   6.481  1.00  0.00    -0.018 A 
ATOM     13  C   UNL     1     -29.634   9.484   7.145  1.00  0.00    +0.009 A 
ATOM     14  C   UNL     1     -27.978  10.905   6.114  1.00  0.00    -0.018 A 
ATOM     15  C   UNL     1     -25.664  10.222   5.868  1.00  0.00    +0.009 A 
ATOM     16  C   UNL     1     -30.616  10.460   6.943  1.00  0.00    +0.001 A 
ATOM     17  C   UNL     1     -28.973  11.877   5.917  1.00  0.00    +0.009 A 
ATOM     18  C   UNL     1     -26.673  11.162   5.688  1.00  0.00    +0.009 A 
ATOM     19  C   UNL     1     -30.285  11.657   6.328  1.00  0.00    +0.001 A 
ENDBRANCH   4   6
ENDBRANCH   1   4
TORSDOF 3
ENDMDL
MODEL 2
REMARK VINA RESULT:    -9.881      2.586      5.656
REMARK INTER + INTRA:         -11.923
REMARK INTER:                 -11.530
REMARK INTRA:                  -0.393
REMARK UNBOUND:                -0.309
REMARK SMILES CCOC(=O)c1ccc2ccc3ccccc3c2c1
REMARK SMILES IDX 3 1 2 2 1 3 4 4 5 5 6 6 19 7 7 8 18 9 8 10 17 11 9 12 16 13
REMARK SMILES IDX 12 14 10 15 15 16 13 17 11 18 14 19
REMARK H PARENT
ROOT
ATOM      1  O   UNL     1     -31.986   8.285   7.760  1.00  0.00    -0.462 OA
ENDROOT
BRANCH   1   2
ATOM      2  C   UNL     1     -32.960   7.652   6.918  1.00  0.00    +0.230 C 
ATOM      3  C   UNL     1     -32.421   7.510   5.508  1.00  0.00    +0.049 C 
ENDBRANCH   1   2
BRANCH   1   4
ATOM      4  C   UNL     1     -31.975   9.641   7.732  1.00  0.00    +0.338 C 
ATOM      5  O   UNL     1     -32.884  10.373   8.090  1.00  0.00    -0.246 OA
BRANCH   4   6
ATOM      6  C   UNL     1     -30.679  10.143   7.196  1.00  0.00    +0.060 A 
ATOM      7  C   UNL     1     -29.561   9.296   7.262  1.00  0.00    +0.025 A 
ATOM      8  C   UNL     1     -30.542  11.412   6.638  1.00  0.00    +0.016 A 
ATOM      9  C   UNL     1     -28.283   9.680   6.779  1.00  0.00    -0.010 A 
ATOM     10  C   UNL     1     -29.301  11.823   6.153  1.00  0.00    +0.009 A 
ATOM     11  C   UNL     1     -27.114   8.840   6.828  1.00  0.00    -0.011 A 
ATOM     12  C   UNL     1     -28.181  10.979   6.216  1.00  0.00    -0.018 A 
ATOM     13  C   UNL     1     -27.096   7.528   7.364  1.00  0.00    +0.009 A 
ATOM     14  C   UNL     1     -25.887   9.333   6.313  1.00  0.00    -0.018 A 
ATOM     15  C   UNL     1     -26.955  11.428   5.720  1.00  0.00    +0.009 A 
ATOM     16  C   UNL     1     -25.934   6.748   7.391  1.00  0.00    +0.001 A 
ATOM     17  C   UNL     1     -24.727   8.540   6.345  1.00  0.00    +0.009 A 
ATOM     18  C   UNL     1     -25.825  10.617   5.767  1.00  0.00    +0.009 A 
ATOM     19  C   UNL     1     -24.750   7.255   6.881  1.00  0.00    +0.001 A 
ENDBRANCH   4   6
ENDBRANCH   1   4
TORSDOF 3
ENDMDL
MODEL 3
REMARK VINA RESULT:    -9.070      3.066      5.343
REMARK INTER + INTRA:         -10.970
REMARK INTER:                 -10.639
REMARK INTRA:                  -0.331
REMARK UNBOUND:                -0.309
REMARK SMILES CCOC(=O)c1ccc2ccc3ccccc3c2c1
REMARK SMILES IDX 3 1 2 2 1 3 4 4 5 5 6 6 19 7 7 8 18 9 8 10 17 11 9 12 16 13
REMARK SMILES IDX 12 14 10 15 15 16 13 17 11 18 14 19
REMARK H PARENT
ROOT
ATOM      1  O   UNL     1     -32.643   5.910   7.392  1.00  0.00    -0.462 OA
ENDROOT
BRANCH   1   2
ATOM      2  C   UNL     1     -33.677   5.191   8.080  1.00  0.00    +0.230 C 
ATOM      3  C   UNL     1     -34.973   5.978   8.047  1.00  0.00    +0.049 C 
ENDBRANCH   1   2
BRANCH   1   4
ATOM      4  C   UNL     1     -31.704   6.490   8.180  1.00  0.00    +0.338 C 
ATOM      5  O   UNL     1     -31.155   5.973   9.140  1.00  0.00    -0.246 OA
BRANCH   4   6
ATOM      6  C   UNL     1     -31.414   7.875   7.715  1.00  0.00    +0.060 A 
ATOM      7  C   UNL     1     -30.103   8.180   7.312  1.00  0.00    +0.025 A 
ATOM      8  C   UNL     1     -32.390   8.868   7.669  1.00  0.00    +0.016 A 
ATOM      9  C   UNL     1     -29.726   9.468   6.853  1.00  0.00    -0.010 A 
ATOM     10  C   UNL     1     -32.055  10.146   7.224  1.00  0.00    +0.009 A 
ATOM     11  C   UNL     1     -28.395   9.818   6.430  1.00  0.00    -0.011 A 
ATOM     12  C   UNL     1     -30.746  10.454   6.818  1.00  0.00    -0.018 A 
ATOM     13  C   UNL     1     -27.298   8.920   6.420  1.00  0.00    +0.009 A 
ATOM     14  C   UNL     1     -28.135  11.142   5.990  1.00  0.00    -0.018 A 
ATOM     15  C   UNL     1     -30.451  11.747   6.379  1.00  0.00    +0.009 A 
ATOM     16  C   UNL     1     -26.020   9.305   6.000  1.00  0.00    +0.001 A 
ATOM     17  C   UNL     1     -26.847  11.517   5.570  1.00  0.00    +0.009 A 
ATOM     18  C   UNL     1     -29.164  12.085   5.970  1.00  0.00    +0.009 A 
ATOM     19  C   UNL     1     -25.795  10.605   5.575  1.00  0.00    +0.001 A 
ENDBRANCH   4   6
ENDBRANCH   1   4
TORSDOF 3
ENDMDL
MODEL 4
REMARK VINA RESULT:    -9.059      1.140      2.865
REMARK INTER + INTRA:         -10.957
REMARK INTER:                 -10.876
REMARK INTRA:                  -0.081
REMARK UNBOUND:                -0.309
REMARK SMILES CCOC(=O)c1ccc2ccc3ccccc3c2c1
REMARK SMILES IDX 3 1 2 2 1 3 4 4 5 5 6 6 19 7 7 8 18 9 8 10 17 11 9 12 16 13
REMARK SMILES IDX 12 14 10 15 15 16 13 17 11 18 14 19
REMARK H PARENT
ROOT
ATOM      1  O   UNL     1     -25.881   5.056   7.937  1.00  0.00    -0.462 OA
ENDROOT
BRANCH   1   2
ATOM      2  C   UNL     1     -25.670   4.697   9.310  1.00  0.00    +0.230 C 
ATOM      3  C   UNL     1     -25.985   3.229   9.522  1.00  0.00    +0.049 C 
ENDBRANCH   1   2
BRANCH   1   4
ATOM      4  C   UNL     1     -25.627   6.350   7.620  1.00  0.00    +0.338 C 
ATOM      5  O   UNL     1     -24.527   6.832   7.403  1.00  0.00    -0.246 OA
BRANCH   4   6
ATOM      6  C   UNL     1     -26.892   7.135   7.566  1.00  0.00    +0.060 A 
ATOM      7  C   UNL     1     -26.860   8.407   6.972  1.00  0.00    +0.025 A 
ATOM      8  C   UNL     1     -28.093   6.652   8.081  1.00  0.00    +0.016 A 
ATOM      9  C   UNL     1     -28.010   9.231   6.870  1.00  0.00    -0.010 A 
ATOM     10  C   UNL     1     -29.244   7.436   7.999  1.00  0.00    +0.009 A 
ATOM     11  C   UNL     1     -28.017  10.539   6.268  1.00  0.00    -0.011 A 
ATOM     12  C   UNL     1     -29.216   8.708   7.404  1.00  0.00    -0.018 A 
ATOM     13  C   UNL     1     -26.877  11.163   5.702  1.00  0.00    +0.009 A 
ATOM     14  C   UNL     1     -29.230  11.274   6.223  1.00  0.00    -0.018 A 
ATOM     15  C   UNL     1     -30.390   9.461   7.342  1.00  0.00    +0.009 A 
ATOM     16  C   UNL     1     -26.931  12.437   5.126  1.00  0.00    +0.001 A 
ATOM     17  C   UNL     1     -29.272  12.552   5.642  1.00  0.00    +0.009 A 
ATOM     18  C   UNL     1     -30.397  10.725   6.760  1.00  0.00    +0.009 A 
ATOM     19  C   UNL     1     -28.130  13.132   5.097  1.00  0.00    +0.001 A 
ENDBRANCH   4   6
ENDBRANCH   1   4
TORSDOF 3
ENDMDL
MODEL 5
REMARK VINA RESULT:    -8.406      4.119      5.443
REMARK INTER + INTRA:         -10.190
REMARK INTER:                  -9.892
REMARK INTRA:                  -0.298
REMARK UNBOUND:                -0.309
REMARK SMILES CCOC(=O)c1ccc2ccc3ccccc3c2c1
REMARK SMILES IDX 3 1 2 2 1 3 4 4 5 5 6 6 19 7 7 8 18 9 8 10 17 11 9 12 16 13
REMARK SMILES IDX 12 14 10 15 15 16 13 17 11 18 14 19
REMARK H PARENT
ROOT
ATOM      1  O   UNL     1     -33.949   4.622   8.721  1.00  0.00    -0.462 OA
ENDROOT
BRANCH   1   2
ATOM      2  C   UNL     1     -34.903   4.507   9.787  1.00  0.00    +0.230 C 
ATOM      3  C   UNL     1     -34.325   3.679  10.919  1.00  0.00    +0.049 C 
ENDBRANCH   1   2
BRANCH   1   4
ATOM      4  C   UNL     1     -33.826   5.856   8.171  1.00  0.00    +0.338 C 
ATOM      5  O   UNL     1     -34.740   6.548   7.751  1.00  0.00    -0.246 OA
BRANCH   4   6
ATOM      6  C   UNL     1     -32.398   6.277   8.145  1.00  0.00    +0.060 A 
ATOM      7  C   UNL     1     -32.091   7.553   7.644  1.00  0.00    +0.025 A 
ATOM      8  C   UNL     1     -31.367   5.455   8.596  1.00  0.00    +0.016 A 
ATOM      9  C   UNL     1     -30.763   8.047   7.578  1.00  0.00    -0.010 A 
ATOM     10  C   UNL     1     -30.050   5.908   8.545  1.00  0.00    +0.009 A 
ATOM     11  C   UNL     1     -30.409   9.349   7.072  1.00  0.00    -0.011 A 
ATOM     12  C   UNL     1     -29.739   7.184   8.046  1.00  0.00    -0.018 A 
ATOM     13  C   UNL     1     -31.343  10.295   6.580  1.00  0.00    +0.009 A 
ATOM     14  C   UNL     1     -29.044   9.736   7.054  1.00  0.00    -0.018 A 
ATOM     15  C   UNL     1     -28.406   7.601   8.012  1.00  0.00    +0.009 A 
ATOM     16  C   UNL     1     -30.952  11.549   6.098  1.00  0.00    +0.001 A 
ATOM     17  C   UNL     1     -28.664  10.998   6.568  1.00  0.00    +0.009 A 
ATOM     18  C   UNL     1     -28.064   8.858   7.523  1.00  0.00    +0.009 A 
ATOM     19  C   UNL     1     -29.612  11.901   6.092  1.00  0.00    +0.001 A 
ENDBRANCH   4   6
ENDBRANCH   1   4
TORSDOF 3
ENDMDL
MODEL 6
REMARK VINA RESULT:    -8.075      5.634      7.845
REMARK INTER + INTRA:          -9.801
REMARK INTER:                  -9.577
REMARK INTRA:                  -0.224
REMARK UNBOUND:                -0.309
REMARK SMILES CCOC(=O)c1ccc2ccc3ccccc3c2c1
REMARK SMILES IDX 3 1 2 2 1 3 4 4 5 5 6 6 19 7 7 8 18 9 8 10 17 11 9 12 16 13
REMARK SMILES IDX 12 14 10 15 15 16 13 17 11 18 14 19
REMARK H PARENT
ROOT
ATOM      1  O   UNL     1     -29.458   8.591   6.555  1.00  0.00    -0.462 OA
ENDROOT
BRANCH   1   2
ATOM      2  C   UNL     1     -28.438   8.486   7.560  1.00  0.00    +0.230 C 
ATOM      3  C   UNL     1     -27.065   8.558   6.921  1.00  0.00    +0.049 C 
ENDBRANCH   1   2
BRANCH   1   4
ATOM      4  C   UNL     1     -30.700   8.896   7.007  1.00  0.00    +0.338 C 
ATOM      5  O   UNL     1     -31.016   9.913   7.605  1.00  0.00    -0.246 OA
BRANCH   4   6
ATOM      6  C   UNL     1     -31.662   7.809   6.672  1.00  0.00    +0.060 A 
ATOM      7  C   UNL     1     -32.097   6.966   7.708  1.00  0.00    +0.025 A 
ATOM      8  C   UNL     1     -32.137   7.603   5.379  1.00  0.00    +0.016 A 
ATOM      9  C   UNL     1     -33.011   5.902   7.492  1.00  0.00    -0.010 A 
ATOM     10  C   UNL     1     -33.037   6.567   5.131  1.00  0.00    +0.009 A 
ATOM     11  C   UNL     1     -33.481   5.017   8.528  1.00  0.00    -0.011 A 
ATOM     12  C   UNL     1     -33.475   5.723   6.164  1.00  0.00    -0.018 A 
ATOM     13  C   UNL     1     -33.089   5.101   9.888  1.00  0.00    +0.009 A 
ATOM     14  C   UNL     1     -34.397   3.987   8.193  1.00  0.00    -0.018 A 
ATOM     15  C   UNL     1     -34.377   4.696   5.874  1.00  0.00    +0.009 A 
ATOM     16  C   UNL     1     -33.572   4.218  10.860  1.00  0.00    +0.001 A 
ATOM     17  C   UNL     1     -34.876   3.107   9.178  1.00  0.00    +0.009 A 
ATOM     18  C   UNL     1     -34.831   3.841   6.874  1.00  0.00    +0.009 A 
ATOM     19  C   UNL     1     -34.466   3.221  10.504  1.00  0.00    +0.001 A 
ENDBRANCH   4   6
ENDBRANCH   1   4
TORSDOF 3
ENDMDL
MODEL 7
REMARK VINA RESULT:    -8.058      2.838      4.235
REMARK INTER + INTRA:          -9.781
REMARK INTER:                  -9.565
REMARK INTRA:                  -0.216
REMARK UNBOUND:                -0.309
REMARK SMILES CCOC(=O)c1ccc2ccc3ccccc3c2c1
REMARK SMILES IDX 3 1 2 2 1 3 4 4 5 5 6 6 19 7 7 8 18 9 8 10 17 11 9 12 16 13
REMARK SMILES IDX 12 14 10 15 15 16 13 17 11 18 14 19
REMARK H PARENT
ROOT
ATOM      1  O   UNL     1     -31.832   6.027   8.396  1.00  0.00    -0.462 OA
ENDROOT
BRANCH   1   2
ATOM      2  C   UNL     1     -33.110   5.691   8.955  1.00  0.00    +0.230 C 
ATOM      3  C   UNL     1     -33.209   4.193   9.173  1.00  0.00    +0.049 C 
ENDBRANCH   1   2
BRANCH   1   4
ATOM      4  C   UNL     1     -31.703   7.299   7.943  1.00  0.00    +0.338 C 
ATOM      5  O   UNL     1     -32.616   8.082   7.736  1.00  0.00    -0.246 OA
BRANCH   4   6
ATOM      6  C   UNL     1     -30.268   7.635   7.724  1.00  0.00    +0.060 A 
ATOM      7  C   UNL     1     -29.958   8.874   7.140  1.00  0.00    +0.025 A 
ATOM      8  C   UNL     1     -29.236   6.768   8.076  1.00  0.00    +0.016 A 
ATOM      9  C   UNL     1     -28.624   9.286   6.890  1.00  0.00    -0.010 A 
ATOM     10  C   UNL     1     -27.912   7.142   7.845  1.00  0.00    +0.009 A 
ATOM     11  C   UNL     1     -28.266  10.548   6.294  1.00  0.00    -0.011 A 
ATOM     12  C   UNL     1     -27.598   8.380   7.262  1.00  0.00    -0.018 A 
ATOM     13  C   UNL     1     -29.202  11.532   5.884  1.00  0.00    +0.009 A 
ATOM     14  C   UNL     1     -26.895  10.853   6.092  1.00  0.00    -0.018 A 
ATOM     15  C   UNL     1     -26.259   8.717   7.047  1.00  0.00    +0.009 A 
ATOM     16  C   UNL     1     -28.807  12.744   5.309  1.00  0.00    +0.001 A 
ATOM     17  C   UNL     1     -26.511  12.075   5.514  1.00  0.00    +0.009 A 
ATOM     18  C   UNL     1     -25.914   9.935   6.471  1.00  0.00    +0.009 A 
ATOM     19  C   UNL     1     -27.461  13.016   5.124  1.00  0.00    +0.001 A 
ENDBRANCH   4   6
ENDBRANCH   1   4
TORSDOF 3
ENDMDL
MODEL 8
REMARK VINA RESULT:    -7.626      7.064      8.511
REMARK INTER + INTRA:          -9.272
REMARK INTER:                  -8.993
REMARK INTRA:                  -0.279
REMARK UNBOUND:                -0.309
REMARK SMILES CCOC(=O)c1ccc2ccc3ccccc3c2c1
REMARK SMILES IDX 3 1 2 2 1 3 4 4 5 5 6 6 19 7 7 8 18 9 8 10 17 11 9 12 16 13
REMARK SMILES IDX 12 14 10 15 15 16 13 17 11 18 14 19
REMARK H PARENT
ROOT
ATOM      1  O   UNL     1     -36.972   2.987   9.513  1.00  0.00    -0.462 OA
ENDROOT
BRANCH   1   2
ATOM      2  C   UNL     1     -37.681   2.782  10.745  1.00  0.00    +0.230 C 
ATOM      3  C   UNL     1     -38.479   4.022  11.102  1.00  0.00    +0.049 C 
ENDBRANCH   1   2
BRANCH   1   4
ATOM      4  C   UNL     1     -35.794   2.325   9.396  1.00  0.00    +0.338 C 
ATOM      5  O   UNL     1     -35.656   1.115   9.312  1.00  0.00    -0.246 OA
BRANCH   4   6
ATOM      6  C   UNL     1     -34.654   3.285   9.379  1.00  0.00    +0.060 A 
ATOM      7  C   UNL     1     -34.473   4.080   8.235  1.00  0.00    +0.025 A 
ATOM      8  C   UNL     1     -33.773   3.417  10.449  1.00  0.00    +0.016 A 
ATOM      9  C   UNL     1     -33.420   5.023   8.121  1.00  0.00    -0.010 A 
ATOM     10  C   UNL     1     -32.725   4.335  10.371  1.00  0.00    +0.009 A 
ATOM     11  C   UNL     1     -33.202   5.856   6.966  1.00  0.00    -0.011 A 
ATOM     12  C   UNL     1     -32.541   5.132   9.230  1.00  0.00    -0.018 A 
ATOM     13  C   UNL     1     -34.012   5.837   5.803  1.00  0.00    +0.009 A 
ATOM     14  C   UNL     1     -32.113   6.766   6.966  1.00  0.00    -0.018 A 
ATOM     15  C   UNL     1     -31.480   6.039   9.191  1.00  0.00    +0.009 A 
ATOM     16  C   UNL     1     -33.762   6.666   4.704  1.00  0.00    +0.001 A 
ATOM     17  C   UNL     1     -31.872   7.594   5.856  1.00  0.00    +0.009 A 
ATOM     18  C   UNL     1     -31.269   6.844   8.076  1.00  0.00    +0.009 A 
ATOM     19  C   UNL     1     -32.691   7.544   4.731  1.00  0.00    +0.001 A 
ENDBRANCH   4   6
ENDBRANCH   1   4
TORSDOF 3
ENDMDL
MODEL 9
REMARK VINA RESULT:    -7.509      7.085      9.303
REMARK INTER + INTRA:          -9.135
REMARK INTER:                  -9.072
REMARK INTRA:                  -0.063
REMARK UNBOUND:                -0.309
REMARK SMILES CCOC(=O)c1ccc2ccc3ccccc3c2c1
REMARK SMILES IDX 3 1 2 2 1 3 4 4 5 5 6 6 19 7 7 8 18 9 8 10 17 11 9 12 16 13
REMARK SMILES IDX 12 14 10 15 15 16 13 17 11 18 14 19
REMARK H PARENT
ROOT
ATOM      1  O   UNL     1     -32.593   8.405   6.567  1.00  0.00    -0.462 OA
ENDROOT
BRANCH   1   2
ATOM      2  C   UNL     1     -31.481   8.784   7.392  1.00  0.00    +0.230 C 
ATOM      3  C   UNL     1     -31.522  10.274   7.673  1.00  0.00    +0.049 C 
ENDBRANCH   1   2
BRANCH   1   4
ATOM      4  C   UNL     1     -32.676   7.086   6.260  1.00  0.00    +0.338 C 
ATOM      5  O   UNL     1     -32.532   6.598   5.151  1.00  0.00    -0.246 OA
BRANCH   4   6
ATOM      6  C   UNL     1     -32.971   6.282   7.479  1.00  0.00    +0.060 A 
ATOM      7  C   UNL     1     -34.309   6.167   7.890  1.00  0.00    +0.025 A 
ATOM      8  C   UNL     1     -31.974   5.648   8.216  1.00  0.00    +0.016 A 
ATOM      9  C   UNL     1     -34.694   5.424   9.036  1.00  0.00    -0.010 A 
ATOM     10  C   UNL     1     -32.316   4.909   9.349  1.00  0.00    +0.009 A 
ATOM     11  C   UNL     1     -36.054   5.282   9.489  1.00  0.00    -0.011 A 
ATOM     12  C   UNL     1     -33.653   4.791   9.762  1.00  0.00    -0.018 A 
ATOM     13  C   UNL     1     -37.175   5.866   8.845  1.00  0.00    +0.009 A 
ATOM     14  C   UNL     1     -36.319   4.513  10.651  1.00  0.00    -0.018 A 
ATOM     15  C   UNL     1     -33.954   4.042  10.902  1.00  0.00    +0.009 A 
ATOM     16  C   UNL     1     -38.480   5.701   9.322  1.00  0.00    +0.001 A 
ATOM     17  C   UNL     1     -37.635   4.353  11.120  1.00  0.00    +0.009 A 
ATOM     18  C   UNL     1     -35.268   3.905  11.340  1.00  0.00    +0.009 A 
ATOM     19  C   UNL     1     -38.710   4.944  10.460  1.00  0.00    +0.001 A 
ENDBRANCH   4   6
ENDBRANCH   1   4
TORSDOF 3
ENDMDL
