REMARK SMILES Cn1ncc2c(Nc3ccc(Cl)cc3)ncnc21
REMARK SMILES IDX 7 1 6 3 2 4 3 5 18 6 4 7 5 8 17 9 16 10 15 11 1 12 8 13 9 14
REMARK SMILES IDX 14 15 10 16 13 17 11 18 12 19
REMARK H PARENT 7 2
ROOT
ATOM      1  N   UNL     1      -0.806  -0.629   0.080  1.00  0.00    -0.340 N 
ATOM      2  H   UNL     1      -0.630  -1.622   0.027  1.00  0.00    +0.168 HD
ENDROOT
BRANCH   1   3
ATOM      3  C   UNL     1       0.365   0.139   0.162  1.00  0.00    +0.144 A 
ATOM      4  N   UNL     1       3.833  -0.472   0.237  1.00  0.00    -0.250 N 
ATOM      5  N   UNL     1       3.512  -1.784   0.150  1.00  0.00    -0.179 NA
ATOM      6  C   UNL     1       2.744   0.357   0.250  1.00  0.00    +0.163 A 
ATOM      7  C   UNL     1       2.176  -1.769   0.108  1.00  0.00    +0.149 A 
ATOM      8  C   UNL     1       1.635  -0.467   0.167  1.00  0.00    +0.082 A 
ATOM      9  N   UNL     1       2.744   1.698   0.329  1.00  0.00    -0.217 NA
ATOM     10  C   UNL     1       1.493   2.183   0.317  1.00  0.00    +0.226 A 
ATOM     11  N   UNL     1       0.337   1.495   0.240  1.00  0.00    -0.218 NA
ATOM     12  C   UNL     1       5.220  -0.084   0.303  1.00  0.00    +0.176 C 
ENDBRANCH   1   3
BRANCH   1  13
ATOM     13  C   UNL     1      -2.170  -0.290   0.056  1.00  0.00    +0.040 A 
ATOM     14  C   UNL     1      -3.115  -1.329  -0.035  1.00  0.00    +0.027 A 
ATOM     15  C   UNL     1      -2.654   1.021   0.117  1.00  0.00    +0.027 A 
ATOM     16  C   UNL     1      -4.489  -1.066  -0.063  1.00  0.00    +0.022 A 
ATOM     17  C   UNL     1      -4.029   1.292   0.089  1.00  0.00    +0.022 A 
ATOM     18  C   UNL     1      -4.940   0.247  -0.001  1.00  0.00    +0.041 A 
ATOM     19 Cl   UNL     1      -6.627   0.577  -0.035  1.00  0.00    -0.084 Cl
ENDBRANCH   1  13
TORSDOF 2
