REMARK SMILES Cc1ccc2c(C[C@@H](N)C(=O)O)c[nH]c2c1
REMARK SMILES IDX 8 1 7 2 6 3 2 4 16 5 3 6 15 7 4 8 5 9 14 10 13 11 1 12 9 14
REMARK SMILES IDX 10 17 11 18 12 19
REMARK H PARENT 14 13 9 15 9 16 12 20
ROOT
ATOM      1  C   UNL     1       2.677  -0.606   0.165  1.00  0.00    +0.166 C 
ENDROOT
BRANCH   1   2
ATOM      2  C   UNL     1       2.024   0.597  -0.535  1.00  0.00    +0.068 C 
BRANCH   2   3
ATOM      3  C   UNL     1       0.668   0.290  -1.095  1.00  0.00    -0.021 A 
ATOM      4  C   UNL     1      -3.280   0.196   0.400  1.00  0.00    -0.049 A 
ATOM      5  C   UNL     1      -2.933  -0.098  -0.927  1.00  0.00    +0.030 A 
ATOM      6  C   UNL     1      -2.291   0.571   1.315  1.00  0.00    +0.004 A 
ATOM      7  C   UNL     1      -1.581  -0.029  -1.287  1.00  0.00    +0.046 A 
ATOM      8  C   UNL     1      -0.943   0.634   0.938  1.00  0.00    +0.011 A 
ATOM      9  C   UNL     1      -0.577   0.328  -0.388  1.00  0.00    +0.003 A 
ATOM     10  N   UNL     1      -0.972  -0.274  -2.495  1.00  0.00    -0.361 N 
ATOM     11  C   UNL     1       0.379  -0.081  -2.393  1.00  0.00    +0.087 A 
ATOM     12  C   UNL     1      -4.721   0.167   0.821  1.00  0.00    +0.044 C 
ATOM     13  H   UNL     1      -1.457  -0.560  -3.333  1.00  0.00    +0.166 HD
ENDBRANCH   2   3
ENDBRANCH   1   2
BRANCH   1  14
ATOM     14  N   UNL     1       3.272  -1.561  -0.810  1.00  0.00    -0.318 NA
ATOM     15  H   UNL     1       3.723  -2.312  -0.284  1.00  0.00    +0.119 HD
ATOM     16  H   UNL     1       4.041  -1.087  -1.289  1.00  0.00    +0.119 HD
ENDBRANCH   1  14
BRANCH   1  17
ATOM     17  C   UNL     1       3.768  -0.100   1.112  1.00  0.00    +0.320 C 
ATOM     18  O   UNL     1       4.974  -0.241   0.971  1.00  0.00    -0.251 OA
BRANCH  17  19
ATOM     19  O   UNL     1       3.281   0.539   2.195  1.00  0.00    -0.480 OA
ATOM     20  H   UNL     1       4.080   0.782   2.709  1.00  0.00    +0.296 HD
ENDBRANCH  17  19
ENDBRANCH   1  17
TORSDOF 5
