MODEL 1
REMARK VINA RESULT:    -7.870      0.000      0.000
REMARK INTER + INTRA:          -8.558
REMARK INTER:                  -8.331
REMARK INTRA:                  -0.227
REMARK UNBOUND:                -0.227
REMARK SMILES O=C1C=C(c2ccccc2)CC1
REMARK SMILES IDX 1 1 2 2 12 3 11 4 4 5 3 6 5 7 6 8 10 9 7 10 9 11 8 12
REMARK H PARENT
ROOT
ATOM      1  O   UNL     1     -25.469  11.285   5.218  1.00  0.00    -0.295 OA
ATOM      2  C   UNL     1     -26.643  11.538   5.440  1.00  0.00    +0.156 C 
ATOM      3  C   UNL     1     -27.335  12.812   5.077  1.00  0.00    +0.085 C 
ATOM      4  C   UNL     1     -28.765  12.551   5.536  1.00  0.00    +0.044 C 
ATOM      5  C   UNL     1     -28.742  11.192   6.184  1.00  0.00    -0.037 C 
ATOM      6  C   UNL     1     -27.541  10.600   6.121  1.00  0.00    +0.051 C 
ENDROOT
BRANCH   5   7
ATOM      7  C   UNL     1     -29.953  10.607   6.800  1.00  0.00    -0.022 A 
ATOM      8  C   UNL     1     -30.871  11.411   7.494  1.00  0.00    +0.008 A 
ATOM      9  C   UNL     1     -30.221   9.230   6.729  1.00  0.00    +0.008 A 
ATOM     10  C   UNL     1     -32.015  10.865   8.086  1.00  0.00    +0.001 A 
ATOM     11  C   UNL     1     -31.364   8.681   7.321  1.00  0.00    +0.001 A 
ATOM     12  C   UNL     1     -32.262   9.499   7.998  1.00  0.00    +0.000 A 
ENDBRANCH   5   7
TORSDOF 1
ENDMDL
MODEL 2
REMARK VINA RESULT:    -7.650      3.062      4.578
REMARK INTER + INTRA:          -8.324
REMARK INTER:                  -8.090
REMARK INTRA:                  -0.234
REMARK UNBOUND:                -0.227
REMARK SMILES O=C1C=C(c2ccccc2)CC1
REMARK SMILES IDX 1 1 2 2 12 3 11 4 4 5 3 6 5 7 6 8 10 9 7 10 9 11 8 12
REMARK H PARENT
ROOT
ATOM      1  O   UNL     1     -27.438   5.602   8.804  1.00  0.00    -0.295 OA
ATOM      2  C   UNL     1     -27.189   6.544   8.068  1.00  0.00    +0.156 C 
ATOM      3  C   UNL     1     -25.981   6.664   7.196  1.00  0.00    +0.085 C 
ATOM      4  C   UNL     1     -26.223   7.988   6.480  1.00  0.00    +0.044 C 
ATOM      5  C   UNL     1     -27.500   8.536   7.059  1.00  0.00    -0.037 C 
ATOM      6  C   UNL     1     -28.066   7.714   7.954  1.00  0.00    +0.051 C 
ENDROOT
BRANCH   5   7
ATOM      7  C   UNL     1     -28.042   9.846   6.639  1.00  0.00    -0.022 A 
ATOM      8  C   UNL     1     -29.335  10.247   7.014  1.00  0.00    +0.008 A 
ATOM      9  C   UNL     1     -27.295  10.728   5.841  1.00  0.00    +0.008 A 
ATOM     10  C   UNL     1     -29.857  11.482   6.614  1.00  0.00    +0.001 A 
ATOM     11  C   UNL     1     -27.816  11.964   5.440  1.00  0.00    +0.001 A 
ATOM     12  C   UNL     1     -29.097  12.341   5.827  1.00  0.00    +0.000 A 
ENDBRANCH   5   7
TORSDOF 1
ENDMDL
MODEL 3
REMARK VINA RESULT:    -7.583      2.515      3.851
REMARK INTER + INTRA:          -8.254
REMARK INTER:                  -8.019
REMARK INTRA:                  -0.234
REMARK UNBOUND:                -0.227
REMARK SMILES O=C1C=C(c2ccccc2)CC1
REMARK SMILES IDX 1 1 2 2 12 3 11 4 4 5 3 6 5 7 6 8 10 9 7 10 9 11 8 12
REMARK H PARENT
ROOT
ATOM      1  O   UNL     1     -28.004  13.342   4.803  1.00  0.00    -0.295 OA
ATOM      2  C   UNL     1     -28.308  12.364   5.469  1.00  0.00    +0.156 C 
ATOM      3  C   UNL     1     -29.594  12.192   6.212  1.00  0.00    +0.085 C 
ATOM      4  C   UNL     1     -29.447  10.793   6.801  1.00  0.00    +0.044 C 
ATOM      5  C   UNL     1     -28.069  10.329   6.406  1.00  0.00    -0.037 C 
ATOM      6  C   UNL     1     -27.419  11.210   5.635  1.00  0.00    +0.051 C 
ENDROOT
BRANCH   5   7
ATOM      7  C   UNL     1     -27.541   9.017   6.839  1.00  0.00    -0.022 A 
ATOM      8  C   UNL     1     -28.284   8.185   7.692  1.00  0.00    +0.008 A 
ATOM      9  C   UNL     1     -26.276   8.563   6.431  1.00  0.00    +0.008 A 
ATOM     10  C   UNL     1     -27.789   6.945   8.112  1.00  0.00    +0.001 A 
ATOM     11  C   UNL     1     -25.778   7.325   6.851  1.00  0.00    +0.001 A 
ATOM     12  C   UNL     1     -26.535   6.515   7.690  1.00  0.00    +0.000 A 
ENDBRANCH   5   7
TORSDOF 1
ENDMDL
MODEL 4
REMARK VINA RESULT:    -7.541      1.226      1.709
REMARK INTER + INTRA:          -8.209
REMARK INTER:                  -7.976
REMARK INTRA:                  -0.233
REMARK UNBOUND:                -0.227
REMARK SMILES O=C1C=C(c2ccccc2)CC1
REMARK SMILES IDX 1 1 2 2 12 3 11 4 4 5 3 6 5 7 6 8 10 9 7 10 9 11 8 12
REMARK H PARENT
ROOT
ATOM      1  O   UNL     1     -27.795  14.059   4.992  1.00  0.00    -0.295 OA
ATOM      2  C   UNL     1     -27.910  12.900   5.357  1.00  0.00    +0.156 C 
ATOM      3  C   UNL     1     -26.819  11.878   5.347  1.00  0.00    +0.085 C 
ATOM      4  C   UNL     1     -27.507  10.657   5.947  1.00  0.00    +0.044 C 
ATOM      5  C   UNL     1     -28.938  11.068   6.174  1.00  0.00    -0.037 C 
ATOM      6  C   UNL     1     -29.175  12.347   5.855  1.00  0.00    +0.051 C 
ENDROOT
BRANCH   5   7
ATOM      7  C   UNL     1     -29.939  10.121   6.711  1.00  0.00    -0.022 A 
ATOM      8  C   UNL     1     -31.180  10.575   7.188  1.00  0.00    +0.008 A 
ATOM      9  C   UNL     1     -29.684   8.741   6.780  1.00  0.00    +0.008 A 
ATOM     10  C   UNL     1     -32.129   9.686   7.704  1.00  0.00    +0.001 A 
ATOM     11  C   UNL     1     -30.632   7.851   7.296  1.00  0.00    +0.001 A 
ATOM     12  C   UNL     1     -31.855   8.324   7.758  1.00  0.00    +0.000 A 
ENDBRANCH   5   7
TORSDOF 1
ENDMDL
MODEL 5
REMARK VINA RESULT:    -7.520      2.696      4.520
REMARK INTER + INTRA:          -8.187
REMARK INTER:                  -7.953
REMARK INTRA:                  -0.234
REMARK UNBOUND:                -0.227
REMARK SMILES O=C1C=C(c2ccccc2)CC1
REMARK SMILES IDX 1 1 2 2 12 3 11 4 4 5 3 6 5 7 6 8 10 9 7 10 9 11 8 12
REMARK H PARENT
ROOT
ATOM      1  O   UNL     1     -25.311   6.017   7.111  1.00  0.00    -0.295 OA
ATOM      2  C   UNL     1     -26.216   6.828   7.231  1.00  0.00    +0.156 C 
ATOM      3  C   UNL     1     -27.434   6.644   8.078  1.00  0.00    +0.085 C 
ATOM      4  C   UNL     1     -28.168   7.967   7.888  1.00  0.00    +0.044 C 
ATOM      5  C   UNL     1     -27.345   8.750   6.899  1.00  0.00    -0.037 C 
ATOM      6  C   UNL     1     -26.224   8.116   6.530  1.00  0.00    +0.051 C 
ENDROOT
BRANCH   5   7
ATOM      7  C   UNL     1     -27.768  10.086   6.426  1.00  0.00    -0.022 A 
ATOM      8  C   UNL     1     -29.053  10.578   6.706  1.00  0.00    +0.008 A 
ATOM      9  C   UNL     1     -26.912  10.903   5.668  1.00  0.00    +0.008 A 
ATOM     10  C   UNL     1     -29.464  11.837   6.255  1.00  0.00    +0.001 A 
ATOM     11  C   UNL     1     -27.321  12.162   5.216  1.00  0.00    +0.001 A 
ATOM     12  C   UNL     1     -28.597  12.630   5.511  1.00  0.00    +0.000 A 
ENDBRANCH   5   7
TORSDOF 1
ENDMDL
MODEL 6
REMARK VINA RESULT:    -7.123      3.046      4.676
REMARK INTER + INTRA:          -7.766
REMARK INTER:                  -7.536
REMARK INTRA:                  -0.231
REMARK UNBOUND:                -0.227
REMARK SMILES O=C1C=C(c2ccccc2)CC1
REMARK SMILES IDX 1 1 2 2 12 3 11 4 4 5 3 6 5 7 6 8 10 9 7 10 9 11 8 12
REMARK H PARENT
ROOT
ATOM      1  O   UNL     1     -30.355  12.122   7.038  1.00  0.00    -0.295 OA
ATOM      2  C   UNL     1     -29.329  11.593   6.640  1.00  0.00    +0.156 C 
ATOM      3  C   UNL     1     -28.475  12.098   5.522  1.00  0.00    +0.085 C 
ATOM      4  C   UNL     1     -27.329  11.093   5.505  1.00  0.00    +0.044 C 
ATOM      5  C   UNL     1     -27.669  10.071   6.557  1.00  0.00    -0.037 C 
ATOM      6  C   UNL     1     -28.799  10.354   7.219  1.00  0.00    +0.051 C 
ENDROOT
BRANCH   5   7
ATOM      7  C   UNL     1     -26.804   8.898   6.806  1.00  0.00    -0.022 A 
ATOM      8  C   UNL     1     -25.441   8.921   6.467  1.00  0.00    +0.008 A 
ATOM      9  C   UNL     1     -27.311   7.717   7.373  1.00  0.00    +0.008 A 
ATOM     10  C   UNL     1     -24.616   7.813   6.693  1.00  0.00    +0.001 A 
ATOM     11  C   UNL     1     -26.488   6.608   7.599  1.00  0.00    +0.001 A 
ATOM     12  C   UNL     1     -25.140   6.656   7.260  1.00  0.00    +0.000 A 
ENDBRANCH   5   7
TORSDOF 1
ENDMDL
MODEL 7
REMARK VINA RESULT:    -6.867      2.629      4.092
REMARK INTER + INTRA:          -7.495
REMARK INTER:                  -7.279
REMARK INTRA:                  -0.217
REMARK UNBOUND:                -0.227
REMARK SMILES O=C1C=C(c2ccccc2)CC1
REMARK SMILES IDX 1 1 2 2 12 3 11 4 4 5 3 6 5 7 6 8 10 9 7 10 9 11 8 12
REMARK H PARENT
ROOT
ATOM      1  O   UNL     1     -29.889  12.085   6.756  1.00  0.00    -0.295 OA
ATOM      2  C   UNL     1     -29.961  10.866   6.772  1.00  0.00    +0.156 C 
ATOM      3  C   UNL     1     -28.814   9.937   7.007  1.00  0.00    +0.085 C 
ATOM      4  C   UNL     1     -29.488   8.570   6.970  1.00  0.00    +0.044 C 
ATOM      5  C   UNL     1     -30.934   8.837   6.645  1.00  0.00    -0.037 C 
ATOM      6  C   UNL     1     -31.217  10.143   6.545  1.00  0.00    +0.051 C 
ENDROOT
BRANCH   5   7
ATOM      7  C   UNL     1     -31.907   7.736   6.478  1.00  0.00    -0.022 A 
ATOM      8  C   UNL     1     -32.501   7.480   5.232  1.00  0.00    +0.008 A 
ATOM      9  C   UNL     1     -32.285   6.919   7.557  1.00  0.00    +0.008 A 
ATOM     10  C   UNL     1     -33.428   6.445   5.067  1.00  0.00    +0.001 A 
ATOM     11  C   UNL     1     -33.212   5.884   7.394  1.00  0.00    +0.001 A 
ATOM     12  C   UNL     1     -33.783   5.646   6.149  1.00  0.00    +0.000 A 
ENDBRANCH   5   7
TORSDOF 1
ENDMDL
MODEL 8
REMARK VINA RESULT:    -6.793      3.416      5.682
REMARK INTER + INTRA:          -7.418
REMARK INTER:                  -7.199
REMARK INTRA:                  -0.219
REMARK UNBOUND:                -0.227
REMARK SMILES O=C1C=C(c2ccccc2)CC1
REMARK SMILES IDX 1 1 2 2 12 3 11 4 4 5 3 6 5 7 6 8 10 9 7 10 9 11 8 12
REMARK H PARENT
ROOT
ATOM      1  O   UNL     1     -32.923   5.107   8.474  1.00  0.00    -0.295 OA
ATOM      2  C   UNL     1     -32.647   5.993   7.679  1.00  0.00    +0.156 C 
ATOM      3  C   UNL     1     -33.195   6.112   6.294  1.00  0.00    +0.085 C 
ATOM      4  C   UNL     1     -32.558   7.405   5.799  1.00  0.00    +0.044 C 
ATOM      5  C   UNL     1     -31.652   7.864   6.912  1.00  0.00    -0.037 C 
ATOM      6  C   UNL     1     -31.707   7.074   7.993  1.00  0.00    +0.051 C 
ENDROOT
BRANCH   5   7
ATOM      7  C   UNL     1     -30.818   9.078   6.780  1.00  0.00    -0.022 A 
ATOM      8  C   UNL     1     -31.403  10.336   6.560  1.00  0.00    +0.008 A 
ATOM      9  C   UNL     1     -29.417   9.019   6.854  1.00  0.00    +0.008 A 
ATOM     10  C   UNL     1     -30.621  11.488   6.428  1.00  0.00    +0.001 A 
ATOM     11  C   UNL     1     -28.633  10.170   6.721  1.00  0.00    +0.001 A 
ATOM     12  C   UNL     1     -29.235  11.405   6.509  1.00  0.00    +0.000 A 
ENDBRANCH   5   7
TORSDOF 1
ENDMDL
MODEL 9
REMARK VINA RESULT:    -6.204      3.042      5.596
REMARK INTER + INTRA:          -6.794
REMARK INTER:                  -6.570
REMARK INTRA:                  -0.224
REMARK UNBOUND:                -0.227
REMARK SMILES O=C1C=C(c2ccccc2)CC1
REMARK SMILES IDX 1 1 2 2 12 3 11 4 4 5 3 6 5 7 6 8 10 9 7 10 9 11 8 12
REMARK H PARENT
ROOT
ATOM      1  O   UNL     1     -33.748   7.217   6.747  1.00  0.00    -0.295 OA
ATOM      2  C   UNL     1     -32.580   7.453   7.018  1.00  0.00    +0.156 C 
ATOM      3  C   UNL     1     -31.774   6.743   8.057  1.00  0.00    +0.085 C 
ATOM      4  C   UNL     1     -30.407   7.403   7.920  1.00  0.00    +0.044 C 
ATOM      5  C   UNL     1     -30.577   8.475   6.875  1.00  0.00    -0.037 C 
ATOM      6  C   UNL     1     -31.807   8.501   6.344  1.00  0.00    +0.051 C 
ENDROOT
BRANCH   5   7
ATOM      7  C   UNL     1     -29.463   9.371   6.497  1.00  0.00    -0.022 A 
ATOM      8  C   UNL     1     -28.171   8.865   6.281  1.00  0.00    +0.008 A 
ATOM      9  C   UNL     1     -29.649  10.757   6.358  1.00  0.00    +0.008 A 
ATOM     10  C   UNL     1     -27.110   9.708   5.930  1.00  0.00    +0.001 A 
ATOM     11  C   UNL     1     -28.589  11.601   6.008  1.00  0.00    +0.001 A 
ATOM     12  C   UNL     1     -27.319  11.076   5.793  1.00  0.00    +0.000 A 
ENDBRANCH   5   7
TORSDOF 1
ENDMDL
