MODEL 1
REMARK VINA RESULT:   -10.575      0.000      0.000
REMARK INTER + INTRA:         -14.591
REMARK INTER:                 -13.665
REMARK INTRA:                  -0.925
REMARK UNBOUND:                -0.925
REMARK SMILES O=C(C=Cc1ccccc1)c1ccc(N=Cc2ccccc2)cc1
REMARK SMILES IDX 11 1 12 2 13 3 14 4 23 5 24 6 2 7 1 8 3 9 4 10 5 11 6 12
REMARK SMILES IDX 10 13 7 14 9 15 8 16 15 17 16 18 17 19 18 20 22 21 19 22
REMARK SMILES IDX 21 23 20 24
REMARK H PARENT
ROOT
ATOM      1  C   UNL     1     -32.526   7.353   7.356  1.00  0.00    +0.022 A 
ATOM      2  C   UNL     1     -31.785   6.757   8.384  1.00  0.00    +0.014 A 
ATOM      3  C   UNL     1     -32.139   5.489   8.856  1.00  0.00    +0.029 A 
ATOM      4  C   UNL     1     -33.245   4.815   8.329  1.00  0.00    +0.063 A 
ATOM      5  C   UNL     1     -33.971   5.405   7.293  1.00  0.00    +0.029 A 
ATOM      6  C   UNL     1     -33.625   6.673   6.817  1.00  0.00    +0.014 A 
ENDROOT
BRANCH   1   7
ATOM      7  C   UNL     1     -32.205   8.707   6.824  1.00  0.00    +0.185 C 
ATOM      8  O   UNL     1     -31.846   8.842   5.661  1.00  0.00    -0.289 OA
BRANCH   7   9
ATOM      9  C   UNL     1     -32.252   9.845   7.784  1.00  0.00    +0.053 C 
ATOM     10  C   UNL     1     -31.321  10.800   7.923  1.00  0.00    +0.012 C 
BRANCH  10  11
ATOM     11  C   UNL     1     -30.091  10.966   7.145  1.00  0.00    -0.026 A 
ATOM     12  C   UNL     1     -29.971  12.062   6.281  1.00  0.00    +0.008 A 
ATOM     13  C   UNL     1     -29.013  10.086   7.282  1.00  0.00    +0.008 A 
ATOM     14  C   UNL     1     -28.797  12.264   5.553  1.00  0.00    +0.001 A 
ATOM     15  C   UNL     1     -27.839  10.288   6.552  1.00  0.00    +0.001 A 
ATOM     16  C   UNL     1     -27.731  11.377   5.689  1.00  0.00    +0.000 A 
ENDBRANCH  10  11
ENDBRANCH   7   9
ENDBRANCH   1   7
BRANCH   4  17
ATOM     17  N   UNL     1     -33.599   3.537   8.774  1.00  0.00    -0.256 NA
ATOM     18  C   UNL     1     -34.650   3.331   9.512  1.00  0.00    +0.119 C 
BRANCH  18  19
ATOM     19  C   UNL     1     -35.691   4.274   9.971  1.00  0.00    -0.007 A 
ATOM     20  C   UNL     1     -35.511   5.103  11.081  1.00  0.00    +0.010 A 
ATOM     21  C   UNL     1     -36.862   4.363   9.212  1.00  0.00    +0.010 A 
ATOM     22  C   UNL     1     -36.520   5.993  11.453  1.00  0.00    +0.001 A 
ATOM     23  C   UNL     1     -37.868   5.255   9.587  1.00  0.00    +0.001 A 
ATOM     24  C   UNL     1     -37.698   6.066  10.709  1.00  0.00    +0.000 A 
ENDBRANCH  18  19
ENDBRANCH   4  17
TORSDOF 5
ENDMDL
MODEL 2
REMARK VINA RESULT:    -9.875      4.696      7.535
REMARK INTER + INTRA:         -13.686
REMARK INTER:                 -11.751
REMARK INTRA:                  -1.936
REMARK UNBOUND:                -0.925
REMARK SMILES O=C(C=Cc1ccccc1)c1ccc(N=Cc2ccccc2)cc1
REMARK SMILES IDX 11 1 12 2 13 3 14 4 23 5 24 6 2 7 1 8 3 9 4 10 5 11 6 12
REMARK SMILES IDX 10 13 7 14 9 15 8 16 15 17 16 18 17 19 18 20 22 21 19 22
REMARK SMILES IDX 21 23 20 24
REMARK H PARENT
ROOT
ATOM      1  C   UNL     1     -33.875   3.586  10.946  1.00  0.00    +0.022 A 
ATOM      2  C   UNL     1     -34.182   2.280  11.348  1.00  0.00    +0.014 A 
ATOM      3  C   UNL     1     -33.392   1.211  10.915  1.00  0.00    +0.029 A 
ATOM      4  C   UNL     1     -32.306   1.427  10.061  1.00  0.00    +0.063 A 
ATOM      5  C   UNL     1     -31.993   2.732   9.676  1.00  0.00    +0.029 A 
ATOM      6  C   UNL     1     -32.779   3.806  10.102  1.00  0.00    +0.014 A 
ENDROOT
BRANCH   1   7
ATOM      7  C   UNL     1     -34.690   4.762  11.364  1.00  0.00    +0.185 C 
ATOM      8  O   UNL     1     -34.201   5.627  12.080  1.00  0.00    -0.289 OA
BRANCH   7   9
ATOM      9  C   UNL     1     -36.121   4.779  10.951  1.00  0.00    +0.053 C 
ATOM     10  C   UNL     1     -36.578   4.828   9.691  1.00  0.00    +0.012 C 
BRANCH  10  11
ATOM     11  C   UNL     1     -35.791   4.826   8.455  1.00  0.00    -0.026 A 
ATOM     12  C   UNL     1     -35.198   6.019   8.022  1.00  0.00    +0.008 A 
ATOM     13  C   UNL     1     -35.575   3.654   7.726  1.00  0.00    +0.008 A 
ATOM     14  C   UNL     1     -34.413   6.040   6.868  1.00  0.00    +0.001 A 
ATOM     15  C   UNL     1     -34.792   3.675   6.569  1.00  0.00    +0.001 A 
ATOM     16  C   UNL     1     -34.211   4.868   6.141  1.00  0.00    +0.000 A 
ENDBRANCH  10  11
ENDBRANCH   7   9
ENDBRANCH   1   7
BRANCH   4  17
ATOM     17  N   UNL     1     -31.492   0.372   9.637  1.00  0.00    -0.256 NA
ATOM     18  C   UNL     1     -30.429   0.013  10.296  1.00  0.00    +0.119 C 
BRANCH  18  19
ATOM     19  C   UNL     1     -29.889   0.515  11.576  1.00  0.00    -0.007 A 
ATOM     20  C   UNL     1     -30.394   0.106  12.813  1.00  0.00    +0.010 A 
ATOM     21  C   UNL     1     -28.791   1.380  11.519  1.00  0.00    +0.010 A 
ATOM     22  C   UNL     1     -29.827   0.595  13.990  1.00  0.00    +0.001 A 
ATOM     23  C   UNL     1     -28.225   1.865  12.700  1.00  0.00    +0.001 A 
ATOM     24  C   UNL     1     -28.746   1.476  13.934  1.00  0.00    +0.000 A 
ENDBRANCH  18  19
ENDBRANCH   4  17
TORSDOF 5
ENDMDL
MODEL 3
REMARK VINA RESULT:    -9.570      5.820      8.537
REMARK INTER + INTRA:         -13.293
REMARK INTER:                 -12.107
REMARK INTRA:                  -1.186
REMARK UNBOUND:                -0.925
REMARK SMILES O=C(C=Cc1ccccc1)c1ccc(N=Cc2ccccc2)cc1
REMARK SMILES IDX 11 1 12 2 13 3 14 4 23 5 24 6 2 7 1 8 3 9 4 10 5 11 6 12
REMARK SMILES IDX 10 13 7 14 9 15 8 16 15 17 16 18 17 19 18 20 22 21 19 22
REMARK SMILES IDX 21 23 20 24
REMARK H PARENT
ROOT
ATOM      1  C   UNL     1     -33.236   2.786  10.211  1.00  0.00    +0.022 A 
ATOM      2  C   UNL     1     -33.859   1.670  10.785  1.00  0.00    +0.014 A 
ATOM      3  C   UNL     1     -33.162   0.464  10.905  1.00  0.00    +0.029 A 
ATOM      4  C   UNL     1     -31.850   0.349  10.434  1.00  0.00    +0.063 A 
ATOM      5  C   UNL     1     -31.227   1.467   9.878  1.00  0.00    +0.029 A 
ATOM      6  C   UNL     1     -31.917   2.676   9.752  1.00  0.00    +0.014 A 
ENDROOT
BRANCH   1   7
ATOM      7  C   UNL     1     -33.934   4.091  10.044  1.00  0.00    +0.185 C 
ATOM      8  O   UNL     1     -34.272   4.470   8.930  1.00  0.00    -0.289 OA
BRANCH   7   9
ATOM      9  C   UNL     1     -34.110   4.929  11.263  1.00  0.00    +0.053 C 
ATOM     10  C   UNL     1     -35.261   5.472  11.688  1.00  0.00    +0.012 C 
BRANCH  10  11
ATOM     11  C   UNL     1     -36.590   5.328  11.089  1.00  0.00    -0.026 A 
ATOM     12  C   UNL     1     -37.163   6.422  10.427  1.00  0.00    +0.008 A 
ATOM     13  C   UNL     1     -37.279   4.112  11.117  1.00  0.00    +0.008 A 
ATOM     14  C   UNL     1     -38.413   6.303   9.817  1.00  0.00    +0.001 A 
ATOM     15  C   UNL     1     -38.531   3.994  10.508  1.00  0.00    +0.001 A 
ATOM     16  C   UNL     1     -39.097   5.089   9.858  1.00  0.00    +0.000 A 
ENDBRANCH  10  11
ENDBRANCH   7   9
ENDBRANCH   1   7
BRANCH   4  17
ATOM     17  N   UNL     1     -31.132  -0.843  10.566  1.00  0.00    -0.256 NA
ATOM     18  C   UNL     1     -30.283  -1.033  11.533  1.00  0.00    +0.119 C 
BRANCH  18  19
ATOM     19  C   UNL     1     -29.938  -0.168  12.680  1.00  0.00    -0.007 A 
ATOM     20  C   UNL     1     -30.627  -0.226  13.894  1.00  0.00    +0.010 A 
ATOM     21  C   UNL     1     -28.838   0.684  12.539  1.00  0.00    +0.010 A 
ATOM     22  C   UNL     1     -30.240   0.599  14.951  1.00  0.00    +0.001 A 
ATOM     23  C   UNL     1     -28.454   1.506  13.599  1.00  0.00    +0.001 A 
ATOM     24  C   UNL     1     -29.157   1.466  14.803  1.00  0.00    +0.000 A 
ENDBRANCH  18  19
ENDBRANCH   4  17
TORSDOF 5
ENDMDL
MODEL 4
REMARK VINA RESULT:    -9.413      5.831      8.755
REMARK INTER + INTRA:         -13.089
REMARK INTER:                 -11.857
REMARK INTRA:                  -1.233
REMARK UNBOUND:                -0.925
REMARK SMILES O=C(C=Cc1ccccc1)c1ccc(N=Cc2ccccc2)cc1
REMARK SMILES IDX 11 1 12 2 13 3 14 4 23 5 24 6 2 7 1 8 3 9 4 10 5 11 6 12
REMARK SMILES IDX 10 13 7 14 9 15 8 16 15 17 16 18 17 19 18 20 22 21 19 22
REMARK SMILES IDX 21 23 20 24
REMARK H PARENT
ROOT
ATOM      1  C   UNL     1     -33.279   3.051  10.600  1.00  0.00    +0.022 A 
ATOM      2  C   UNL     1     -32.449   2.427   9.659  1.00  0.00    +0.014 A 
ATOM      3  C   UNL     1     -31.808   1.226   9.980  1.00  0.00    +0.029 A 
ATOM      4  C   UNL     1     -31.966   0.649  11.243  1.00  0.00    +0.063 A 
ATOM      5  C   UNL     1     -32.806   1.265  12.172  1.00  0.00    +0.029 A 
ATOM      6  C   UNL     1     -33.449   2.467  11.861  1.00  0.00    +0.014 A 
ENDROOT
BRANCH   1   7
ATOM      7  C   UNL     1     -33.975   4.339  10.319  1.00  0.00    +0.185 C 
ATOM      8  O   UNL     1     -34.133   4.714   9.164  1.00  0.00    -0.289 OA
BRANCH   7   9
ATOM      9  C   UNL     1     -34.374   5.166  11.492  1.00  0.00    +0.053 C 
ATOM     10  C   UNL     1     -35.609   5.620  11.753  1.00  0.00    +0.012 C 
BRANCH  10  11
ATOM     11  C   UNL     1     -36.832   5.371  10.986  1.00  0.00    -0.026 A 
ATOM     12  C   UNL     1     -37.453   4.119  11.078  1.00  0.00    +0.008 A 
ATOM     13  C   UNL     1     -37.423   6.368  10.204  1.00  0.00    +0.008 A 
ATOM     14  C   UNL     1     -38.639   3.865  10.385  1.00  0.00    +0.001 A 
ATOM     15  C   UNL     1     -38.607   6.113   9.509  1.00  0.00    +0.001 A 
ATOM     16  C   UNL     1     -39.215   4.862   9.600  1.00  0.00    +0.000 A 
ENDBRANCH  10  11
ENDBRANCH   7   9
ENDBRANCH   1   7
BRANCH   4  17
ATOM     17  N   UNL     1     -31.351  -0.562  11.572  1.00  0.00    -0.256 NA
ATOM     18  C   UNL     1     -30.091  -0.632  11.891  1.00  0.00    +0.119 C 
BRANCH  18  19
ATOM     19  C   UNL     1     -29.090   0.442  12.052  1.00  0.00    -0.007 A 
ATOM     20  C   UNL     1     -28.261   0.855  11.005  1.00  0.00    +0.010 A 
ATOM     21  C   UNL     1     -29.034   1.094  13.288  1.00  0.00    +0.010 A 
ATOM     22  C   UNL     1     -27.350   1.893  11.210  1.00  0.00    +0.001 A 
ATOM     23  C   UNL     1     -28.123   2.133  13.487  1.00  0.00    +0.001 A 
ATOM     24  C   UNL     1     -27.279   2.528  12.450  1.00  0.00    +0.000 A 
ENDBRANCH  18  19
ENDBRANCH   4  17
TORSDOF 5
ENDMDL
MODEL 5
REMARK VINA RESULT:    -8.934      5.252      8.568
REMARK INTER + INTRA:         -12.471
REMARK INTER:                 -11.024
REMARK INTRA:                  -1.446
REMARK UNBOUND:                -0.925
REMARK SMILES O=C(C=Cc1ccccc1)c1ccc(N=Cc2ccccc2)cc1
REMARK SMILES IDX 11 1 12 2 13 3 14 4 23 5 24 6 2 7 1 8 3 9 4 10 5 11 6 12
REMARK SMILES IDX 10 13 7 14 9 15 8 16 15 17 16 18 17 19 18 20 22 21 19 22
REMARK SMILES IDX 21 23 20 24
REMARK H PARENT
ROOT
ATOM      1  C   UNL     1     -32.082   0.870  10.646  1.00  0.00    +0.022 A 
ATOM      2  C   UNL     1     -31.371   0.102   9.716  1.00  0.00    +0.014 A 
ATOM      3  C   UNL     1     -30.181  -0.529  10.093  1.00  0.00    +0.029 A 
ATOM      4  C   UNL     1     -29.676  -0.381  11.389  1.00  0.00    +0.063 A 
ATOM      5  C   UNL     1     -30.396   0.372  12.318  1.00  0.00    +0.029 A 
ATOM      6  C   UNL     1     -31.585   1.007  11.948  1.00  0.00    +0.014 A 
ENDROOT
BRANCH   1   7
ATOM      7  C   UNL     1     -33.346   1.576  10.296  1.00  0.00    +0.185 C 
ATOM      8  O   UNL     1     -33.894   1.362   9.222  1.00  0.00    -0.289 OA
BRANCH   7   9
ATOM      9  C   UNL     1     -33.844   2.599  11.259  1.00  0.00    +0.053 C 
ATOM     10  C   UNL     1     -33.969   3.913  11.020  1.00  0.00    +0.012 C 
BRANCH  10  11
ATOM     11  C   UNL     1     -33.695   4.622   9.768  1.00  0.00    -0.026 A 
ATOM     12  C   UNL     1     -34.749   4.877   8.882  1.00  0.00    +0.008 A 
ATOM     13  C   UNL     1     -32.416   5.095   9.459  1.00  0.00    +0.008 A 
ATOM     14  C   UNL     1     -34.523   5.581   7.698  1.00  0.00    +0.001 A 
ATOM     15  C   UNL     1     -32.189   5.798   8.273  1.00  0.00    +0.001 A 
ATOM     16  C   UNL     1     -33.243   6.041   7.394  1.00  0.00    +0.000 A 
ENDBRANCH  10  11
ENDBRANCH   7   9
ENDBRANCH   1   7
BRANCH   4  17
ATOM     17  N   UNL     1     -28.500  -1.023  11.789  1.00  0.00    -0.256 NA
ATOM     18  C   UNL     1     -27.339  -0.441  11.720  1.00  0.00    +0.119 C 
BRANCH  18  19
ATOM     19  C   UNL     1     -26.987   0.936  11.316  1.00  0.00    -0.007 A 
ATOM     20  C   UNL     1     -26.775   1.293   9.982  1.00  0.00    +0.010 A 
ATOM     21  C   UNL     1     -26.933   1.910  12.318  1.00  0.00    +0.010 A 
ATOM     22  C   UNL     1     -26.470   2.615   9.657  1.00  0.00    +0.001 A 
ATOM     23  C   UNL     1     -26.629   3.232  11.989  1.00  0.00    +0.001 A 
ATOM     24  C   UNL     1     -26.394   3.583  10.660  1.00  0.00    +0.000 A 
ENDBRANCH  18  19
ENDBRANCH   4  17
TORSDOF 5
ENDMDL
MODEL 6
REMARK VINA RESULT:    -8.804      5.293      7.532
REMARK INTER + INTRA:         -12.303
REMARK INTER:                 -11.046
REMARK INTRA:                  -1.257
REMARK UNBOUND:                -0.925
REMARK SMILES O=C(C=Cc1ccccc1)c1ccc(N=Cc2ccccc2)cc1
REMARK SMILES IDX 11 1 12 2 13 3 14 4 23 5 24 6 2 7 1 8 3 9 4 10 5 11 6 12
REMARK SMILES IDX 10 13 7 14 9 15 8 16 15 17 16 18 17 19 18 20 22 21 19 22
REMARK SMILES IDX 21 23 20 24
REMARK H PARENT
ROOT
ATOM      1  C   UNL     1     -33.001   1.863   9.907  1.00  0.00    +0.022 A 
ATOM      2  C   UNL     1     -34.198   1.817   9.180  1.00  0.00    +0.014 A 
ATOM      3  C   UNL     1     -34.650   2.955   8.504  1.00  0.00    +0.029 A 
ATOM      4  C   UNL     1     -33.930   4.153   8.565  1.00  0.00    +0.063 A 
ATOM      5  C   UNL     1     -32.730   4.190   9.276  1.00  0.00    +0.029 A 
ATOM      6  C   UNL     1     -32.272   3.059   9.956  1.00  0.00    +0.014 A 
ENDROOT
BRANCH   1   7
ATOM      7  C   UNL     1     -32.479   0.687  10.658  1.00  0.00    +0.185 C 
ATOM      8  O   UNL     1     -32.753   0.543  11.843  1.00  0.00    -0.289 OA
BRANCH   7   9
ATOM      9  C   UNL     1     -31.554  -0.228   9.933  1.00  0.00    +0.053 C 
ATOM     10  C   UNL     1     -30.223  -0.287  10.084  1.00  0.00    +0.012 C 
BRANCH  10  11
ATOM     11  C   UNL     1     -29.395   0.486  11.013  1.00  0.00    -0.026 A 
ATOM     12  C   UNL     1     -28.738   1.632  10.550  1.00  0.00    +0.008 A 
ATOM     13  C   UNL     1     -29.286   0.137  12.363  1.00  0.00    +0.008 A 
ATOM     14  C   UNL     1     -27.970   2.408  11.421  1.00  0.00    +0.001 A 
ATOM     15  C   UNL     1     -28.516   0.911  13.233  1.00  0.00    +0.001 A 
ATOM     16  C   UNL     1     -27.860   2.047  12.763  1.00  0.00    +0.000 A 
ENDBRANCH  10  11
ENDBRANCH   7   9
ENDBRANCH   1   7
BRANCH   4  17
ATOM     17  N   UNL     1     -34.356   5.293   7.877  1.00  0.00    -0.256 NA
ATOM     18  C   UNL     1     -35.485   5.881   8.147  1.00  0.00    +0.119 C 
BRANCH  18  19
ATOM     19  C   UNL     1     -36.484   5.585   9.194  1.00  0.00    -0.007 A 
ATOM     20  C   UNL     1     -37.625   4.818   8.944  1.00  0.00    +0.010 A 
ATOM     21  C   UNL     1     -36.222   6.049  10.487  1.00  0.00    +0.010 A 
ATOM     22  C   UNL     1     -38.522   4.551   9.979  1.00  0.00    +0.001 A 
ATOM     23  C   UNL     1     -37.121   5.778  11.520  1.00  0.00    +0.001 A 
ATOM     24  C   UNL     1     -38.272   5.032  11.265  1.00  0.00    +0.000 A 
ENDBRANCH  18  19
ENDBRANCH   4  17
TORSDOF 5
ENDMDL
MODEL 7
REMARK VINA RESULT:    -8.728      6.527     10.324
REMARK INTER + INTRA:         -12.204
REMARK INTER:                 -10.875
REMARK INTRA:                  -1.330
REMARK UNBOUND:                -0.925
REMARK SMILES O=C(C=Cc1ccccc1)c1ccc(N=Cc2ccccc2)cc1
REMARK SMILES IDX 11 1 12 2 13 3 14 4 23 5 24 6 2 7 1 8 3 9 4 10 5 11 6 12
REMARK SMILES IDX 10 13 7 14 9 15 8 16 15 17 16 18 17 19 18 20 22 21 19 22
REMARK SMILES IDX 21 23 20 24
REMARK H PARENT
ROOT
ATOM      1  C   UNL     1     -29.328   0.272  12.438  1.00  0.00    +0.022 A 
ATOM      2  C   UNL     1     -28.991  -0.523  11.335  1.00  0.00    +0.014 A 
ATOM      3  C   UNL     1     -27.664  -0.585  10.897  1.00  0.00    +0.029 A 
ATOM      4  C   UNL     1     -26.667   0.159  11.535  1.00  0.00    +0.063 A 
ATOM      5  C   UNL     1     -27.004   0.937  12.644  1.00  0.00    +0.029 A 
ATOM      6  C   UNL     1     -28.327   1.007  13.087  1.00  0.00    +0.014 A 
ENDROOT
BRANCH   1   7
ATOM      7  C   UNL     1     -30.726   0.389  12.940  1.00  0.00    +0.185 C 
ATOM      8  O   UNL     1     -30.967   1.048  13.943  1.00  0.00    -0.289 OA
BRANCH   7   9
ATOM      9  C   UNL     1     -31.773  -0.394  12.226  1.00  0.00    +0.053 C 
ATOM     10  C   UNL     1     -32.677   0.097  11.365  1.00  0.00    +0.012 C 
BRANCH  10  11
ATOM     11  C   UNL     1     -32.808   1.481  10.903  1.00  0.00    -0.026 A 
ATOM     12  C   UNL     1     -33.761   2.314  11.501  1.00  0.00    +0.008 A 
ATOM     13  C   UNL     1     -31.970   2.006   9.914  1.00  0.00    +0.008 A 
ATOM     14  C   UNL     1     -33.885   3.646  11.105  1.00  0.00    +0.001 A 
ATOM     15  C   UNL     1     -32.096   3.339   9.516  1.00  0.00    +0.001 A 
ATOM     16  C   UNL     1     -33.053   4.158  10.112  1.00  0.00    +0.000 A 
ENDBRANCH  10  11
ENDBRANCH   7   9
ENDBRANCH   1   7
BRANCH   4  17
ATOM     17  N   UNL     1     -25.333   0.090  11.125  1.00  0.00    -0.256 NA
ATOM     18  C   UNL     1     -24.782   1.027  10.409  1.00  0.00    +0.119 C 
BRANCH  18  19
ATOM     19  C   UNL     1     -25.331   2.319   9.948  1.00  0.00    -0.007 A 
ATOM     20  C   UNL     1     -26.530   2.410   9.238  1.00  0.00    +0.010 A 
ATOM     21  C   UNL     1     -24.637   3.480  10.304  1.00  0.00    +0.010 A 
ATOM     22  C   UNL     1     -27.012   3.661   8.849  1.00  0.00    +0.001 A 
ATOM     23  C   UNL     1     -25.124   4.728   9.915  1.00  0.00    +0.001 A 
ATOM     24  C   UNL     1     -26.308   4.818   9.185  1.00  0.00    +0.000 A 
ENDBRANCH  18  19
ENDBRANCH   4  17
TORSDOF 5
ENDMDL
MODEL 8
REMARK VINA RESULT:    -8.725      6.992     10.661
REMARK INTER + INTRA:         -12.200
REMARK INTER:                 -11.264
REMARK INTRA:                  -0.936
REMARK UNBOUND:                -0.925
REMARK SMILES O=C(C=Cc1ccccc1)c1ccc(N=Cc2ccccc2)cc1
REMARK SMILES IDX 11 1 12 2 13 3 14 4 23 5 24 6 2 7 1 8 3 9 4 10 5 11 6 12
REMARK SMILES IDX 10 13 7 14 9 15 8 16 15 17 16 18 17 19 18 20 22 21 19 22
REMARK SMILES IDX 21 23 20 24
REMARK H PARENT
ROOT
ATOM      1  C   UNL     1     -28.890   1.844  11.563  1.00  0.00    +0.022 A 
ATOM      2  C   UNL     1     -28.709   2.333  10.263  1.00  0.00    +0.014 A 
ATOM      3  C   UNL     1     -27.570   3.082   9.950  1.00  0.00    +0.029 A 
ATOM      4  C   UNL     1     -26.615   3.372  10.930  1.00  0.00    +0.063 A 
ATOM      5  C   UNL     1     -26.791   2.868  12.220  1.00  0.00    +0.029 A 
ATOM      6  C   UNL     1     -27.927   2.120  12.542  1.00  0.00    +0.014 A 
ENDROOT
BRANCH   1   7
ATOM      7  C   UNL     1     -30.090   1.053  11.957  1.00  0.00    +0.185 C 
ATOM      8  O   UNL     1     -30.395   0.945  13.138  1.00  0.00    -0.289 OA
BRANCH   7   9
ATOM      9  C   UNL     1     -30.824   0.344  10.873  1.00  0.00    +0.053 C 
ATOM     10  C   UNL     1     -31.867   0.826  10.180  1.00  0.00    +0.012 C 
BRANCH  10  11
ATOM     11  C   UNL     1     -32.480   2.151  10.297  1.00  0.00    -0.026 A 
ATOM     12  C   UNL     1     -33.456   2.368  11.278  1.00  0.00    +0.008 A 
ATOM     13  C   UNL     1     -32.079   3.218   9.487  1.00  0.00    +0.008 A 
ATOM     14  C   UNL     1     -34.032   3.630  11.435  1.00  0.00    +0.001 A 
ATOM     15  C   UNL     1     -32.657   4.479   9.643  1.00  0.00    +0.001 A 
ATOM     16  C   UNL     1     -33.633   4.685  10.616  1.00  0.00    +0.000 A 
ENDBRANCH  10  11
ENDBRANCH   7   9
ENDBRANCH   1   7
BRANCH   4  17
ATOM     17  N   UNL     1     -25.461   4.100  10.628  1.00  0.00    -0.256 NA
ATOM     18  C   UNL     1     -24.307   3.523  10.456  1.00  0.00    +0.119 C 
BRANCH  18  19
ATOM     19  C   UNL     1     -23.951   2.089  10.454  1.00  0.00    -0.007 A 
ATOM     20  C   UNL     1     -24.774   1.115   9.884  1.00  0.00    +0.010 A 
ATOM     21  C   UNL     1     -22.710   1.731  10.992  1.00  0.00    +0.010 A 
ATOM     22  C   UNL     1     -24.373  -0.222   9.890  1.00  0.00    +0.001 A 
ATOM     23  C   UNL     1     -22.313   0.393  10.994  1.00  0.00    +0.001 A 
ATOM     24  C   UNL     1     -23.146  -0.582  10.447  1.00  0.00    +0.000 A 
ENDBRANCH  18  19
ENDBRANCH   4  17
TORSDOF 5
ENDMDL
MODEL 9
REMARK VINA RESULT:    -8.706      8.399     11.570
REMARK INTER + INTRA:         -12.176
REMARK INTER:                 -10.712
REMARK INTRA:                  -1.464
REMARK UNBOUND:                -0.925
REMARK SMILES O=C(C=Cc1ccccc1)c1ccc(N=Cc2ccccc2)cc1
REMARK SMILES IDX 11 1 12 2 13 3 14 4 23 5 24 6 2 7 1 8 3 9 4 10 5 11 6 12
REMARK SMILES IDX 10 13 7 14 9 15 8 16 15 17 16 18 17 19 18 20 22 21 19 22
REMARK SMILES IDX 21 23 20 24
REMARK H PARENT
ROOT
ATOM      1  C   UNL     1     -29.650  -1.005  10.950  1.00  0.00    +0.022 A 
ATOM      2  C   UNL     1     -29.045  -0.231   9.952  1.00  0.00    +0.014 A 
ATOM      3  C   UNL     1     -27.653  -0.226   9.817  1.00  0.00    +0.029 A 
ATOM      4  C   UNL     1     -26.850  -0.970  10.688  1.00  0.00    +0.063 A 
ATOM      5  C   UNL     1     -27.458  -1.753  11.671  1.00  0.00    +0.029 A 
ATOM      6  C   UNL     1     -28.848  -1.761  11.814  1.00  0.00    +0.014 A 
ENDROOT
BRANCH   1   7
ATOM      7  C   UNL     1     -31.126  -1.037  11.149  1.00  0.00    +0.185 C 
ATOM      8  O   UNL     1     -31.777  -2.003  10.773  1.00  0.00    -0.289 OA
BRANCH   7   9
ATOM      9  C   UNL     1     -31.761   0.179  11.731  1.00  0.00    +0.053 C 
ATOM     10  C   UNL     1     -31.476   0.725  12.922  1.00  0.00    +0.012 C 
BRANCH  10  11
ATOM     11  C   UNL     1     -30.461   0.288  13.884  1.00  0.00    -0.026 A 
ATOM     12  C   UNL     1     -29.300   1.053  14.048  1.00  0.00    +0.008 A 
ATOM     13  C   UNL     1     -30.646  -0.848  14.679  1.00  0.00    +0.008 A 
ATOM     14  C   UNL     1     -28.332   0.680  14.982  1.00  0.00    +0.001 A 
ATOM     15  C   UNL     1     -29.676  -1.223  15.612  1.00  0.00    +0.001 A 
ATOM     16  C   UNL     1     -28.521  -0.459  15.763  1.00  0.00    +0.000 A 
ENDBRANCH  10  11
ENDBRANCH   7   9
ENDBRANCH   1   7
BRANCH   4  17
ATOM     17  N   UNL     1     -25.459  -0.994  10.554  1.00  0.00    -0.256 NA
ATOM     18  C   UNL     1     -24.733   0.076  10.698  1.00  0.00    +0.119 C 
BRANCH  18  19
ATOM     19  C   UNL     1     -25.127   1.448  11.077  1.00  0.00    -0.007 A 
ATOM     20  C   UNL     1     -24.663   2.575  10.394  1.00  0.00    +0.010 A 
ATOM     21  C   UNL     1     -26.047   1.592  12.121  1.00  0.00    +0.010 A 
ATOM     22  C   UNL     1     -25.089   3.846  10.782  1.00  0.00    +0.001 A 
ATOM     23  C   UNL     1     -26.471   2.864  12.505  1.00  0.00    +0.001 A 
ATOM     24  C   UNL     1     -25.989   3.991  11.838  1.00  0.00    +0.000 A 
ENDBRANCH  18  19
ENDBRANCH   4  17
TORSDOF 5
ENDMDL
