MODEL 1
REMARK VINA RESULT:    -8.695      0.000      0.000
REMARK INTER + INTRA:         -10.123
REMARK INTER:                  -9.966
REMARK INTRA:                  -0.157
REMARK UNBOUND:                -0.157
REMARK SMILES NNC(=S)NN=Cc1ccnc2ccccc12
REMARK SMILES IDX 2 1 3 2 4 3 5 4 1 7 6 10 7 11 8 12 17 13 9 14 16 15 12 16
REMARK SMILES IDX 10 17 15 18 13 19 11 20 14 21
REMARK H PARENT 2 5 5 6 1 8 1 9
ROOT
ATOM      1  N   UNL     1     -26.078   4.365  11.001  1.00  0.00    -0.300 N 
ATOM      2  C   UNL     1     -26.385   3.305  10.169  1.00  0.00    +0.201 C 
ATOM      3  S   UNL     1     -26.981   1.820  10.646  1.00  0.00    -0.038 S 
ATOM      4  N   UNL     1     -26.162   3.562   8.833  1.00  0.00    -0.253 N 
ATOM      5  H   UNL     1     -25.644   5.165  10.539  1.00  0.00    +0.184 HD
ATOM      6  H   UNL     1     -26.369   2.824   8.167  1.00  0.00    +0.193 HD
ENDROOT
BRANCH   1   7
ATOM      7  N   UNL     1     -26.159   4.304  12.402  1.00  0.00    -0.249 NA
ATOM      8  H   UNL     1     -25.742   3.416  12.698  1.00  0.00    +0.143 HD
ATOM      9  H   UNL     1     -27.149   4.213  12.648  1.00  0.00    +0.143 HD
ENDBRANCH   1   7
BRANCH   4  10
ATOM     10  N   UNL     1     -25.697   4.776   8.413  1.00  0.00    -0.181 NA
ATOM     11  C   UNL     1     -26.594   5.565   7.916  1.00  0.00    +0.142 C 
BRANCH  11  12
ATOM     12  C   UNL     1     -26.290   6.918   7.395  1.00  0.00    +0.005 A 
ATOM     13  C   UNL     1     -27.246   7.958   7.245  1.00  0.00    +0.009 A 
ATOM     14  C   UNL     1     -24.953   7.124   7.052  1.00  0.00    +0.030 A 
ATOM     15  C   UNL     1     -28.638   7.859   7.506  1.00  0.00    +0.011 A 
ATOM     16  C   UNL     1     -26.747   9.191   6.768  1.00  0.00    +0.071 A 
ATOM     17  C   UNL     1     -24.591   8.369   6.593  1.00  0.00    +0.112 A 
ATOM     18  C   UNL     1     -29.495   8.945   7.328  1.00  0.00    +0.001 A 
ATOM     19  C   UNL     1     -27.620  10.258   6.601  1.00  0.00    +0.029 A 
ATOM     20  N   UNL     1     -25.456   9.390   6.452  1.00  0.00    -0.256 NA
ATOM     21  C   UNL     1     -28.983  10.151   6.877  1.00  0.00    +0.002 A 
ENDBRANCH  11  12
ENDBRANCH   4  10
TORSDOF 3
ENDMDL
MODEL 2
REMARK VINA RESULT:    -8.432      1.562      2.064
REMARK INTER + INTRA:          -9.822
REMARK INTER:                  -9.592
REMARK INTRA:                  -0.230
REMARK UNBOUND:                -0.157
REMARK SMILES NNC(=S)NN=Cc1ccnc2ccccc12
REMARK SMILES IDX 2 1 3 2 4 3 5 4 1 7 6 10 7 11 8 12 17 13 9 14 16 15 12 16
REMARK SMILES IDX 10 17 15 18 13 19 11 20 14 21
REMARK H PARENT 2 5 5 6 1 8 1 9
ROOT
ATOM      1  N   UNL     1     -25.252   5.062   9.635  1.00  0.00    -0.300 N 
ATOM      2  C   UNL     1     -26.553   4.606   9.539  1.00  0.00    +0.201 C 
ATOM      3  S   UNL     1     -27.185   3.267  10.310  1.00  0.00    -0.038 S 
ATOM      4  N   UNL     1     -27.354   5.373   8.721  1.00  0.00    -0.253 N 
ATOM      5  H   UNL     1     -25.024   5.849   9.025  1.00  0.00    +0.184 HD
ATOM      6  H   UNL     1     -28.323   5.093   8.608  1.00  0.00    +0.193 HD
ENDROOT
BRANCH   1   7
ATOM      7  N   UNL     1     -24.244   4.398  10.354  1.00  0.00    -0.249 NA
ATOM      8  H   UNL     1     -23.745   5.101  10.908  1.00  0.00    +0.143 HD
ATOM      9  H   UNL     1     -23.549   4.071   9.677  1.00  0.00    +0.143 HD
ENDBRANCH   1   7
BRANCH   4  10
ATOM     10  N   UNL     1     -26.868   6.487   8.097  1.00  0.00    -0.181 NA
ATOM     11  C   UNL     1     -27.758   7.378   7.794  1.00  0.00    +0.142 C 
BRANCH  11  12
ATOM     12  C   UNL     1     -27.435   8.649   7.105  1.00  0.00    +0.005 A 
ATOM     13  C   UNL     1     -28.369   9.687   6.847  1.00  0.00    +0.009 A 
ATOM     14  C   UNL     1     -26.102   8.777   6.711  1.00  0.00    +0.030 A 
ATOM     15  C   UNL     1     -29.758   9.657   7.147  1.00  0.00    +0.011 A 
ATOM     16  C   UNL     1     -27.854  10.839   6.212  1.00  0.00    +0.071 A 
ATOM     17  C   UNL     1     -25.723   9.947   6.095  1.00  0.00    +0.112 A 
ATOM     18  C   UNL     1     -30.593  10.734   6.855  1.00  0.00    +0.001 A 
ATOM     19  C   UNL     1     -28.706  11.899   5.933  1.00  0.00    +0.029 A 
ATOM     20  N   UNL     1     -26.567  10.965   5.848  1.00  0.00    -0.256 NA
ATOM     21  C   UNL     1     -30.064  11.862   6.248  1.00  0.00    +0.002 A 
ENDBRANCH  11  12
ENDBRANCH   4  10
TORSDOF 3
ENDMDL
MODEL 3
REMARK VINA RESULT:    -8.399      4.398      5.506
REMARK INTER + INTRA:          -9.784
REMARK INTER:                  -9.633
REMARK INTRA:                  -0.151
REMARK UNBOUND:                -0.157
REMARK SMILES NNC(=S)NN=Cc1ccnc2ccccc12
REMARK SMILES IDX 2 1 3 2 4 3 5 4 1 7 6 10 7 11 8 12 17 13 9 14 16 15 12 16
REMARK SMILES IDX 10 17 15 18 13 19 11 20 14 21
REMARK H PARENT 2 5 5 6 1 8 1 9
ROOT
ATOM      1  N   UNL     1     -32.618   7.327   5.487  1.00  0.00    -0.300 N 
ATOM      2  C   UNL     1     -32.524   7.068   6.840  1.00  0.00    +0.201 C 
ATOM      3  S   UNL     1     -33.661   6.275   7.772  1.00  0.00    -0.038 S 
ATOM      4  N   UNL     1     -31.358   7.526   7.416  1.00  0.00    -0.253 N 
ATOM      5  H   UNL     1     -31.864   7.898   5.102  1.00  0.00    +0.184 HD
ATOM      6  H   UNL     1     -31.225   7.366   8.410  1.00  0.00    +0.193 HD
ENDROOT
BRANCH   1   7
ATOM      7  N   UNL     1     -33.747   7.015   4.710  1.00  0.00    -0.249 NA
ATOM      8  H   UNL     1     -33.930   6.013   4.819  1.00  0.00    +0.143 HD
ATOM      9  H   UNL     1     -33.479   7.117   3.726  1.00  0.00    +0.143 HD
ENDBRANCH   1   7
BRANCH   4  10
ATOM     10  N   UNL     1     -30.401   8.157   6.673  1.00  0.00    -0.181 NA
ATOM     11  C   UNL     1     -29.277   8.356   7.282  1.00  0.00    +0.142 C 
BRANCH  11  12
ATOM     12  C   UNL     1     -28.119   9.033   6.652  1.00  0.00    +0.005 A 
ATOM     13  C   UNL     1     -28.119  10.379   6.201  1.00  0.00    +0.009 A 
ATOM     14  C   UNL     1     -26.977   8.240   6.527  1.00  0.00    +0.030 A 
ATOM     15  C   UNL     1     -29.226  11.269   6.222  1.00  0.00    +0.011 A 
ATOM     16  C   UNL     1     -26.901  10.851   5.664  1.00  0.00    +0.071 A 
ATOM     17  C   UNL     1     -25.852   8.814   5.982  1.00  0.00    +0.112 A 
ATOM     18  C   UNL     1     -29.121  12.579   5.755  1.00  0.00    +0.001 A 
ATOM     19  C   UNL     1     -26.821  12.160   5.207  1.00  0.00    +0.029 A 
ATOM     20  N   UNL     1     -25.799  10.090   5.559  1.00  0.00    -0.256 NA
ATOM     21  C   UNL     1     -27.912  13.028   5.249  1.00  0.00    +0.002 A 
ENDBRANCH  11  12
ENDBRANCH   4  10
TORSDOF 3
ENDMDL
MODEL 4
REMARK VINA RESULT:    -8.362      2.487      3.872
REMARK INTER + INTRA:          -9.741
REMARK INTER:                  -9.515
REMARK INTRA:                  -0.227
REMARK UNBOUND:                -0.157
REMARK SMILES NNC(=S)NN=Cc1ccnc2ccccc12
REMARK SMILES IDX 2 1 3 2 4 3 5 4 1 7 6 10 7 11 8 12 17 13 9 14 16 15 12 16
REMARK SMILES IDX 10 17 15 18 13 19 11 20 14 21
REMARK H PARENT 2 5 5 6 1 8 1 9
ROOT
ATOM      1  N   UNL     1     -28.055   3.924   9.385  1.00  0.00    -0.300 N 
ATOM      2  C   UNL     1     -26.860   4.589   9.188  1.00  0.00    +0.201 C 
ATOM      3  S   UNL     1     -25.332   3.965   9.443  1.00  0.00    -0.038 S 
ATOM      4  N   UNL     1     -27.010   5.882   8.733  1.00  0.00    -0.253 N 
ATOM      5  H   UNL     1     -28.893   4.494   9.258  1.00  0.00    +0.184 HD
ATOM      6  H   UNL     1     -26.170   6.427   8.566  1.00  0.00    +0.193 HD
ENDROOT
BRANCH   1   7
ATOM      7  N   UNL     1     -28.146   2.624   9.911  1.00  0.00    -0.249 NA
ATOM      8  H   UNL     1     -27.423   2.532  10.632  1.00  0.00    +0.143 HD
ATOM      9  H   UNL     1     -27.852   1.975   9.176  1.00  0.00    +0.143 HD
ENDBRANCH   1   7
BRANCH   4  10
ATOM     10  N   UNL     1     -28.247   6.410   8.494  1.00  0.00    -0.181 NA
ATOM     11  C   UNL     1     -28.248   7.548   7.879  1.00  0.00    +0.142 C 
BRANCH  11  12
ATOM     12  C   UNL     1     -29.486   8.288   7.537  1.00  0.00    +0.005 A 
ATOM     13  C   UNL     1     -29.518   9.605   7.006  1.00  0.00    +0.009 A 
ATOM     14  C   UNL     1     -30.668   7.586   7.773  1.00  0.00    +0.030 A 
ATOM     15  C   UNL     1     -28.393  10.441   6.773  1.00  0.00    +0.011 A 
ATOM     16  C   UNL     1     -30.799  10.121   6.710  1.00  0.00    +0.071 A 
ATOM     17  C   UNL     1     -31.856   8.199   7.447  1.00  0.00    +0.112 A 
ATOM     18  C   UNL     1     -28.533  11.724   6.243  1.00  0.00    +0.001 A 
ATOM     19  C   UNL     1     -30.911  11.399   6.181  1.00  0.00    +0.029 A 
ATOM     20  N   UNL     1     -31.935   9.436   6.923  1.00  0.00    -0.256 NA
ATOM     21  C   UNL     1     -29.797  12.203   5.941  1.00  0.00    +0.002 A 
ENDBRANCH  11  12
ENDBRANCH   4  10
TORSDOF 3
ENDMDL
MODEL 5
REMARK VINA RESULT:    -8.350      2.415      4.145
REMARK INTER + INTRA:          -9.727
REMARK INTER:                  -9.695
REMARK INTRA:                  -0.032
REMARK UNBOUND:                -0.157
REMARK SMILES NNC(=S)NN=Cc1ccnc2ccccc12
REMARK SMILES IDX 2 1 3 2 4 3 5 4 1 7 6 10 7 11 8 12 17 13 9 14 16 15 12 16
REMARK SMILES IDX 10 17 15 18 13 19 11 20 14 21
REMARK H PARENT 2 5 5 6 1 8 1 9
ROOT
ATOM      1  N   UNL     1     -26.079   6.214   7.555  1.00  0.00    -0.300 N 
ATOM      2  C   UNL     1     -27.002   5.598   8.377  1.00  0.00    +0.201 C 
ATOM      3  S   UNL     1     -26.967   4.004   8.876  1.00  0.00    -0.038 S 
ATOM      4  N   UNL     1     -28.020   6.428   8.795  1.00  0.00    -0.253 N 
ATOM      5  H   UNL     1     -26.310   7.172   7.288  1.00  0.00    +0.184 HD
ATOM      6  H   UNL     1     -28.732   6.038   9.404  1.00  0.00    +0.193 HD
ENDROOT
BRANCH   1   7
ATOM      7  N   UNL     1     -25.000   5.543   6.954  1.00  0.00    -0.249 NA
ATOM      8  H   UNL     1     -25.255   4.553   6.879  1.00  0.00    +0.143 HD
ATOM      9  H   UNL     1     -24.223   5.554   7.621  1.00  0.00    +0.143 HD
ENDBRANCH   1   7
BRANCH   4  10
ATOM     10  N   UNL     1     -28.060   7.742   8.421  1.00  0.00    -0.181 NA
ATOM     11  C   UNL     1     -29.048   8.062   7.649  1.00  0.00    +0.142 C 
BRANCH  11  12
ATOM     12  C   UNL     1     -29.262   9.432   7.126  1.00  0.00    +0.005 A 
ATOM     13  C   UNL     1     -28.259  10.225   6.509  1.00  0.00    +0.009 A 
ATOM     14  C   UNL     1     -30.562   9.917   7.276  1.00  0.00    +0.030 A 
ATOM     15  C   UNL     1     -26.893   9.871   6.346  1.00  0.00    +0.011 A 
ATOM     16  C   UNL     1     -28.674  11.492   6.041  1.00  0.00    +0.071 A 
ATOM     17  C   UNL     1     -30.842  11.170   6.782  1.00  0.00    +0.112 A 
ATOM     18  C   UNL     1     -25.984  10.724   5.721  1.00  0.00    +0.001 A 
ATOM     19  C   UNL     1     -27.751  12.323   5.420  1.00  0.00    +0.029 A 
ATOM     20  N   UNL     1     -29.930  11.950   6.173  1.00  0.00    -0.256 NA
ATOM     21  C   UNL     1     -26.416  11.954   5.252  1.00  0.00    +0.002 A 
ENDBRANCH  11  12
ENDBRANCH   4  10
TORSDOF 3
ENDMDL
MODEL 6
REMARK VINA RESULT:    -8.190      5.009      6.372
REMARK INTER + INTRA:          -9.544
REMARK INTER:                  -9.294
REMARK INTRA:                  -0.250
REMARK UNBOUND:                -0.157
REMARK SMILES NNC(=S)NN=Cc1ccnc2ccccc12
REMARK SMILES IDX 2 1 3 2 4 3 5 4 1 7 6 10 7 11 8 12 17 13 9 14 16 15 12 16
REMARK SMILES IDX 10 17 15 18 13 19 11 20 14 21
REMARK H PARENT 2 5 5 6 1 8 1 9
ROOT
ATOM      1  N   UNL     1     -33.563   7.307   5.660  1.00  0.00    -0.300 N 
ATOM      2  C   UNL     1     -33.544   7.068   7.021  1.00  0.00    +0.201 C 
ATOM      3  S   UNL     1     -34.378   5.862   7.820  1.00  0.00    -0.038 S 
ATOM      4  N   UNL     1     -32.740   7.936   7.728  1.00  0.00    -0.253 N 
ATOM      5  H   UNL     1     -33.057   8.142   5.360  1.00  0.00    +0.184 HD
ATOM      6  H   UNL     1     -32.679   7.814   8.734  1.00  0.00    +0.193 HD
ENDROOT
BRANCH   1   7
ATOM      7  N   UNL     1     -34.367   6.593   4.755  1.00  0.00    -0.249 NA
ATOM      8  H   UNL     1     -33.744   6.125   4.091  1.00  0.00    +0.143 HD
ATOM      9  H   UNL     1     -34.871   7.281   4.186  1.00  0.00    +0.143 HD
ENDBRANCH   1   7
BRANCH   4  10
ATOM     10  N   UNL     1     -32.028   8.916   7.096  1.00  0.00    -0.181 NA
ATOM     11  C   UNL     1     -30.773   8.971   7.409  1.00  0.00    +0.142 C 
BRANCH  11  12
ATOM     12  C   UNL     1     -29.836   9.969   6.842  1.00  0.00    +0.005 A 
ATOM     13  C   UNL     1     -28.455   9.737   6.609  1.00  0.00    +0.009 A 
ATOM     14  C   UNL     1     -30.414  11.201   6.531  1.00  0.00    +0.030 A 
ATOM     15  C   UNL     1     -27.739   8.552   6.929  1.00  0.00    +0.011 A 
ATOM     16  C   UNL     1     -27.738  10.805   6.024  1.00  0.00    +0.071 A 
ATOM     17  C   UNL     1     -29.609  12.165   5.969  1.00  0.00    +0.112 A 
ATOM     18  C   UNL     1     -26.378   8.423   6.656  1.00  0.00    +0.001 A 
ATOM     19  C   UNL     1     -26.384  10.651   5.759  1.00  0.00    +0.029 A 
ATOM     20  N   UNL     1     -28.301  11.984   5.712  1.00  0.00    -0.256 NA
ATOM     21  C   UNL     1     -25.698   9.475   6.064  1.00  0.00    +0.002 A 
ENDBRANCH  11  12
ENDBRANCH   4  10
TORSDOF 3
ENDMDL
MODEL 7
REMARK VINA RESULT:    -8.080      5.312      6.436
REMARK INTER + INTRA:          -9.418
REMARK INTER:                  -9.183
REMARK INTRA:                  -0.235
REMARK UNBOUND:                -0.157
REMARK SMILES NNC(=S)NN=Cc1ccnc2ccccc12
REMARK SMILES IDX 2 1 3 2 4 3 5 4 1 7 6 10 7 11 8 12 17 13 9 14 16 15 12 16
REMARK SMILES IDX 10 17 15 18 13 19 11 20 14 21
REMARK H PARENT 2 5 5 6 1 8 1 9
ROOT
ATOM      1  N   UNL     1     -35.076   6.599   8.439  1.00  0.00    -0.300 N 
ATOM      2  C   UNL     1     -34.238   5.539   8.151  1.00  0.00    +0.201 C 
ATOM      3  S   UNL     1     -34.544   3.928   8.467  1.00  0.00    -0.038 S 
ATOM      4  N   UNL     1     -33.058   5.910   7.542  1.00  0.00    -0.253 N 
ATOM      5  H   UNL     1     -34.685   7.523   8.251  1.00  0.00    +0.184 HD
ATOM      6  H   UNL     1     -32.397   5.178   7.302  1.00  0.00    +0.193 HD
ENDROOT
BRANCH   1   7
ATOM      7  N   UNL     1     -36.297   6.464   9.122  1.00  0.00    -0.249 NA
ATOM      8  H   UNL     1     -37.026   6.293   8.422  1.00  0.00    +0.143 HD
ATOM      9  H   UNL     1     -36.533   7.381   9.512  1.00  0.00    +0.143 HD
ENDBRANCH   1   7
BRANCH   4  10
ATOM     10  N   UNL     1     -32.793   7.219   7.251  1.00  0.00    -0.181 NA
ATOM     11  C   UNL     1     -31.653   7.656   7.680  1.00  0.00    +0.142 C 
BRANCH  11  12
ATOM     12  C   UNL     1     -31.185   9.047   7.476  1.00  0.00    +0.005 A 
ATOM     13  C   UNL     1     -29.929   9.401   6.916  1.00  0.00    +0.009 A 
ATOM     14  C   UNL     1     -32.089  10.031   7.878  1.00  0.00    +0.030 A 
ATOM     15  C   UNL     1     -28.905   8.501   6.520  1.00  0.00    +0.011 A 
ATOM     16  C   UNL     1     -29.687  10.785   6.769  1.00  0.00    +0.071 A 
ATOM     17  C   UNL     1     -31.735  11.346   7.688  1.00  0.00    +0.112 A 
ATOM     18  C   UNL     1     -27.703   8.953   5.975  1.00  0.00    +0.001 A 
ATOM     19  C   UNL     1     -28.484  11.211   6.222  1.00  0.00    +0.029 A 
ATOM     20  N   UNL     1     -30.567  11.730   7.143  1.00  0.00    -0.256 NA
ATOM     21  C   UNL     1     -27.493  10.314   5.822  1.00  0.00    +0.002 A 
ENDBRANCH  11  12
ENDBRANCH   4  10
TORSDOF 3
ENDMDL
MODEL 8
REMARK VINA RESULT:    -7.653      4.866      5.626
REMARK INTER + INTRA:          -8.928
REMARK INTER:                  -8.690
REMARK INTRA:                  -0.239
REMARK UNBOUND:                -0.157
REMARK SMILES NNC(=S)NN=Cc1ccnc2ccccc12
REMARK SMILES IDX 2 1 3 2 4 3 5 4 1 7 6 10 7 11 8 12 17 13 9 14 16 15 12 16
REMARK SMILES IDX 10 17 15 18 13 19 11 20 14 21
REMARK H PARENT 2 5 5 6 1 8 1 9
ROOT
ATOM      1  N   UNL     1     -33.625   5.232  10.371  1.00  0.00    -0.300 N 
ATOM      2  C   UNL     1     -34.369   5.335   9.212  1.00  0.00    +0.201 C 
ATOM      3  S   UNL     1     -35.965   4.881   9.022  1.00  0.00    -0.038 S 
ATOM      4  N   UNL     1     -33.675   5.875   8.150  1.00  0.00    -0.253 N 
ATOM      5  H   UNL     1     -32.639   5.481  10.276  1.00  0.00    +0.184 HD
ATOM      6  H   UNL     1     -34.165   5.980   7.267  1.00  0.00    +0.193 HD
ENDROOT
BRANCH   1   7
ATOM      7  N   UNL     1     -34.104   4.646  11.555  1.00  0.00    -0.249 NA
ATOM      8  H   UNL     1     -33.752   3.684  11.588  1.00  0.00    +0.143 HD
ATOM      9  H   UNL     1     -35.118   4.540  11.456  1.00  0.00    +0.143 HD
ENDBRANCH   1   7
BRANCH   4  10
ATOM     10  N   UNL     1     -32.376   6.277   8.284  1.00  0.00    -0.181 NA
ATOM     11  C   UNL     1     -32.037   7.290   7.553  1.00  0.00    +0.142 C 
BRANCH  11  12
ATOM     12  C   UNL     1     -30.674   7.869   7.546  1.00  0.00    +0.005 A 
ATOM     13  C   UNL     1     -30.359   9.187   7.121  1.00  0.00    +0.009 A 
ATOM     14  C   UNL     1     -29.674   7.011   8.006  1.00  0.00    +0.030 A 
ATOM     15  C   UNL     1     -31.272  10.134   6.585  1.00  0.00    +0.011 A 
ATOM     16  C   UNL     1     -29.002   9.564   7.229  1.00  0.00    +0.071 A 
ATOM     17  C   UNL     1     -28.386   7.494   8.059  1.00  0.00    +0.112 A 
ATOM     18  C   UNL     1     -30.861  11.410   6.198  1.00  0.00    +0.001 A 
ATOM     19  C   UNL     1     -28.617  10.840   6.839  1.00  0.00    +0.029 A 
ATOM     20  N   UNL     1     -28.043   8.740   7.686  1.00  0.00    -0.256 NA
ATOM     21  C   UNL     1     -29.528  11.765   6.330  1.00  0.00    +0.002 A 
ENDBRANCH  11  12
ENDBRANCH   4  10
TORSDOF 3
ENDMDL
MODEL 9
REMARK VINA RESULT:    -7.213      7.814      9.057
REMARK INTER + INTRA:          -8.425
REMARK INTER:                  -8.181
REMARK INTRA:                  -0.244
REMARK UNBOUND:                -0.157
REMARK SMILES NNC(=S)NN=Cc1ccnc2ccccc12
REMARK SMILES IDX 2 1 3 2 4 3 5 4 1 7 6 10 7 11 8 12 17 13 9 14 16 15 12 16
REMARK SMILES IDX 10 17 15 18 13 19 11 20 14 21
REMARK H PARENT 2 5 5 6 1 8 1 9
ROOT
ATOM      1  N   UNL     1     -30.648   1.825   9.946  1.00  0.00    -0.300 N 
ATOM      2  C   UNL     1     -31.460   0.708   9.930  1.00  0.00    +0.201 C 
ATOM      3  S   UNL     1     -30.951  -0.881  10.007  1.00  0.00    -0.038 S 
ATOM      4  N   UNL     1     -32.805   0.998   9.845  1.00  0.00    -0.253 N 
ATOM      5  H   UNL     1     -31.131   2.713   9.805  1.00  0.00    +0.184 HD
ATOM      6  H   UNL     1     -33.459   0.221   9.830  1.00  0.00    +0.193 HD
ENDROOT
BRANCH   1   7
ATOM      7  N   UNL     1     -29.243   1.767   9.955  1.00  0.00    -0.249 NA
ATOM      8  H   UNL     1     -28.935   1.593   8.994  1.00  0.00    +0.143 HD
ATOM      9  H   UNL     1     -28.975   0.919  10.464  1.00  0.00    +0.143 HD
ENDBRANCH   1   7
BRANCH   4  10
ATOM     10  N   UNL     1     -33.250   2.289   9.804  1.00  0.00    -0.181 NA
ATOM     11  C   UNL     1     -34.321   2.478   9.102  1.00  0.00    +0.142 C 
BRANCH  11  12
ATOM     12  C   UNL     1     -34.954   3.806   8.925  1.00  0.00    +0.005 A 
ATOM     13  C   UNL     1     -36.145   4.224   9.575  1.00  0.00    +0.009 A 
ATOM     14  C   UNL     1     -34.283   4.659   8.049  1.00  0.00    +0.030 A 
ATOM     15  C   UNL     1     -36.947   3.436  10.443  1.00  0.00    +0.011 A 
ATOM     16  C   UNL     1     -36.566   5.545   9.303  1.00  0.00    +0.071 A 
ATOM     17  C   UNL     1     -34.796   5.922   7.861  1.00  0.00    +0.112 A 
ATOM     18  C   UNL     1     -38.103   3.945  11.036  1.00  0.00    +0.001 A 
ATOM     19  C   UNL     1     -37.719   6.029   9.907  1.00  0.00    +0.029 A 
ATOM     20  N   UNL     1     -35.909   6.370   8.470  1.00  0.00    -0.256 NA
ATOM     21  C   UNL     1     -38.488   5.249  10.770  1.00  0.00    +0.002 A 
ENDBRANCH  11  12
ENDBRANCH   4  10
TORSDOF 3
ENDMDL
