MODEL 1
REMARK VINA RESULT:    -9.227      0.000      0.000
REMARK INTER + INTRA:          -9.227
REMARK INTER:                  -9.227
REMARK INTRA:                   0.000
REMARK UNBOUND:                 0.000
REMARK SMILES Clc1ccc2c(Cl)c3c(nc2c1)CCCC3
REMARK SMILES IDX 1 1 2 2 12 3 11 4 10 5 9 6 8 7 16 8 15 9 14 10 13 11 6 12
REMARK SMILES IDX 5 13 4 14 3 15 7 16
REMARK H PARENT
ROOT
ATOM      1 Cl   UNL     1     -25.779   4.503   8.706  1.00  0.00    -0.084 Cl
ATOM      2  C   UNL     1     -26.096   6.056   8.038  1.00  0.00    +0.043 A 
ATOM      3  C   UNL     1     -27.385   6.579   8.081  1.00  0.00    +0.049 A 
ATOM      4  C   UNL     1     -27.676   7.828   7.550  1.00  0.00    +0.073 A 
ATOM      5  N   UNL     1     -28.942   8.258   7.626  1.00  0.00    -0.252 NA
ATOM      6  C   UNL     1     -29.270   9.469   7.118  1.00  0.00    +0.046 A 
ATOM      7  C   UNL     1     -28.341  10.321   6.530  1.00  0.00    -0.007 A 
ATOM      8  C   UNL     1     -28.762  11.654   5.956  1.00  0.00    +0.039 C 
ATOM      9  C   UNL     1     -30.147  12.119   6.406  1.00  0.00    +0.005 C 
ATOM     10  C   UNL     1     -31.147  10.975   6.334  1.00  0.00    +0.007 C 
ATOM     11  C   UNL     1     -30.718   9.859   7.279  1.00  0.00    +0.056 C 
ATOM     12  C   UNL     1     -27.020   9.851   6.440  1.00  0.00    +0.055 A 
ATOM     13  C   UNL     1     -26.650   8.585   6.958  1.00  0.00    +0.019 A 
ATOM     14  C   UNL     1     -25.340   8.037   6.921  1.00  0.00    +0.013 A 
ATOM     15  C   UNL     1     -25.067   6.780   7.458  1.00  0.00    +0.021 A 
ATOM     16 Cl   UNL     1     -25.820  10.847   5.661  1.00  0.00    -0.083 Cl
ENDROOT
TORSDOF 0
ENDMDL
MODEL 2
REMARK VINA RESULT:    -8.777      1.909      2.863
REMARK INTER + INTRA:          -8.777
REMARK INTER:                  -8.777
REMARK INTRA:                   0.000
REMARK UNBOUND:                 0.000
REMARK SMILES Clc1ccc2c(Cl)c3c(nc2c1)CCCC3
REMARK SMILES IDX 1 1 2 2 12 3 11 4 10 5 9 6 8 7 16 8 15 9 14 10 13 11 6 12
REMARK SMILES IDX 5 13 4 14 3 15 7 16
REMARK H PARENT
ROOT
ATOM      1 Cl   UNL     1     -25.078   5.150   7.853  1.00  0.00    -0.084 Cl
ATOM      2  C   UNL     1     -26.209   6.430   7.652  1.00  0.00    +0.043 A 
ATOM      3  C   UNL     1     -25.836   7.584   6.969  1.00  0.00    +0.049 A 
ATOM      4  C   UNL     1     -26.723   8.636   6.790  1.00  0.00    +0.073 A 
ATOM      5  N   UNL     1     -26.286   9.714   6.126  1.00  0.00    -0.252 NA
ATOM      6  C   UNL     1     -27.118  10.764   5.932  1.00  0.00    +0.046 A 
ATOM      7  C   UNL     1     -28.438  10.777   6.372  1.00  0.00    -0.007 A 
ATOM      8  C   UNL     1     -29.319  11.984   6.151  1.00  0.00    +0.039 C 
ATOM      9  C   UNL     1     -28.778  12.973   5.118  1.00  0.00    +0.005 C 
ATOM     10  C   UNL     1     -27.292  13.217   5.335  1.00  0.00    +0.007 C 
ATOM     11  C   UNL     1     -26.527  11.912   5.154  1.00  0.00    +0.056 C 
ATOM     12  C   UNL     1     -28.878   9.648   7.083  1.00  0.00    +0.055 A 
ATOM     13  C   UNL     1     -28.027   8.537   7.306  1.00  0.00    +0.019 A 
ATOM     14  C   UNL     1     -28.393   7.354   8.002  1.00  0.00    +0.013 A 
ATOM     15  C   UNL     1     -27.487   6.308   8.173  1.00  0.00    +0.021 A 
ATOM     16 Cl   UNL     1     -30.503   9.628   7.713  1.00  0.00    -0.083 Cl
ENDROOT
TORSDOF 0
ENDMDL
MODEL 3
REMARK VINA RESULT:    -8.356      1.729      5.212
REMARK INTER + INTRA:          -8.356
REMARK INTER:                  -8.356
REMARK INTRA:                   0.000
REMARK UNBOUND:                 0.000
REMARK SMILES Clc1ccc2c(Cl)c3c(nc2c1)CCCC3
REMARK SMILES IDX 1 1 2 2 12 3 11 4 10 5 9 6 8 7 16 8 15 9 14 10 13 11 6 12
REMARK SMILES IDX 5 13 4 14 3 15 7 16
REMARK H PARENT
ROOT
ATOM      1 Cl   UNL     1     -32.130  11.808   7.020  1.00  0.00    -0.084 Cl
ATOM      2  C   UNL     1     -30.552  11.143   6.856  1.00  0.00    +0.043 A 
ATOM      3  C   UNL     1     -30.284   9.867   7.345  1.00  0.00    +0.049 A 
ATOM      4  C   UNL     1     -29.023   9.300   7.230  1.00  0.00    +0.073 A 
ATOM      5  N   UNL     1     -28.844   8.071   7.730  1.00  0.00    -0.252 NA
ATOM      6  C   UNL     1     -27.628   7.482   7.642  1.00  0.00    +0.046 A 
ATOM      7  C   UNL     1     -26.536   8.086   7.027  1.00  0.00    -0.007 A 
ATOM      8  C   UNL     1     -25.192   7.396   6.976  1.00  0.00    +0.039 C 
ATOM      9  C   UNL     1     -25.244   5.902   7.297  1.00  0.00    +0.005 C 
ATOM     10  C   UNL     1     -26.121   5.644   8.513  1.00  0.00    +0.007 C 
ATOM     11  C   UNL     1     -27.548   6.091   8.218  1.00  0.00    +0.056 C 
ATOM     12  C   UNL     1     -26.731   9.383   6.523  1.00  0.00    +0.055 A 
ATOM     13  C   UNL     1     -27.992  10.025   6.607  1.00  0.00    +0.019 A 
ATOM     14  C   UNL     1     -28.280  11.326   6.115  1.00  0.00    +0.013 A 
ATOM     15  C   UNL     1     -29.554  11.879   6.240  1.00  0.00    +0.021 A 
ATOM     16 Cl   UNL     1     -25.386  10.217   5.794  1.00  0.00    -0.083 Cl
ENDROOT
TORSDOF 0
ENDMDL
MODEL 4
REMARK VINA RESULT:    -8.012      1.918      2.773
REMARK INTER + INTRA:          -8.012
REMARK INTER:                  -8.012
REMARK INTRA:                   0.000
REMARK UNBOUND:                 0.000
REMARK SMILES Clc1ccc2c(Cl)c3c(nc2c1)CCCC3
REMARK SMILES IDX 1 1 2 2 12 3 11 4 10 5 9 6 8 7 16 8 15 9 14 10 13 11 6 12
REMARK SMILES IDX 5 13 4 14 3 15 7 16
REMARK H PARENT
ROOT
ATOM      1 Cl   UNL     1     -23.955   7.745   6.231  1.00  0.00    -0.084 Cl
ATOM      2  C   UNL     1     -25.410   8.657   6.318  1.00  0.00    +0.043 A 
ATOM      3  C   UNL     1     -26.593   8.040   6.715  1.00  0.00    +0.049 A 
ATOM      4  C   UNL     1     -27.784   8.746   6.795  1.00  0.00    +0.073 A 
ATOM      5  N   UNL     1     -28.880   8.079   7.180  1.00  0.00    -0.252 NA
ATOM      6  C   UNL     1     -30.064   8.729   7.268  1.00  0.00    +0.046 A 
ATOM      7  C   UNL     1     -30.206  10.086   6.999  1.00  0.00    -0.007 A 
ATOM      8  C   UNL     1     -31.555  10.761   7.089  1.00  0.00    +0.039 C 
ATOM      9  C   UNL     1     -32.612   9.948   7.838  1.00  0.00    +0.005 C 
ATOM     10  C   UNL     1     -32.581   8.492   7.397  1.00  0.00    +0.007 C 
ATOM     11  C   UNL     1     -31.224   7.884   7.732  1.00  0.00    +0.056 C 
ATOM     12  C   UNL     1     -29.053  10.771   6.578  1.00  0.00    +0.055 A 
ATOM     13  C   UNL     1     -27.802  10.114   6.471  1.00  0.00    +0.019 A 
ATOM     14  C   UNL     1     -26.588  10.730   6.066  1.00  0.00    +0.013 A 
ATOM     15  C   UNL     1     -25.400  10.004   5.991  1.00  0.00    +0.021 A 
ATOM     16 Cl   UNL     1     -29.177  12.460   6.168  1.00  0.00    -0.083 Cl
ENDROOT
TORSDOF 0
ENDMDL
MODEL 5
REMARK VINA RESULT:    -7.695      7.361      9.934
REMARK INTER + INTRA:          -7.695
REMARK INTER:                  -7.695
REMARK INTRA:                   0.000
REMARK UNBOUND:                 0.000
REMARK SMILES Clc1ccc2c(Cl)c3c(nc2c1)CCCC3
REMARK SMILES IDX 1 1 2 2 12 3 11 4 10 5 9 6 8 7 16 8 15 9 14 10 13 11 6 12
REMARK SMILES IDX 5 13 4 14 3 15 7 16
REMARK H PARENT
ROOT
ATOM      1 Cl   UNL     1     -25.059   4.328   9.898  1.00  0.00    -0.084 Cl
ATOM      2  C   UNL     1     -26.201   3.432  10.821  1.00  0.00    +0.043 A 
ATOM      3  C   UNL     1     -27.041   2.520  10.188  1.00  0.00    +0.049 A 
ATOM      4  C   UNL     1     -27.973   1.781  10.902  1.00  0.00    +0.073 A 
ATOM      5  N   UNL     1     -28.748   0.928  10.219  1.00  0.00    -0.252 NA
ATOM      6  C   UNL     1     -29.673   0.189  10.876  1.00  0.00    +0.046 A 
ATOM      7  C   UNL     1     -29.853   0.250  12.254  1.00  0.00    -0.007 A 
ATOM      8  C   UNL     1     -30.916  -0.577  12.938  1.00  0.00    +0.039 C 
ATOM      9  C   UNL     1     -31.477  -1.709  12.076  1.00  0.00    +0.005 C 
ATOM     10  C   UNL     1     -31.766  -1.217  10.666  1.00  0.00    +0.007 C 
ATOM     11  C   UNL     1     -30.472  -0.752  10.010  1.00  0.00    +0.056 C 
ATOM     12  C   UNL     1     -29.047   1.162  12.957  1.00  0.00    +0.055 A 
ATOM     13  C   UNL     1     -28.074   1.952  12.294  1.00  0.00    +0.019 A 
ATOM     14  C   UNL     1     -27.212   2.887  12.925  1.00  0.00    +0.013 A 
ATOM     15  C   UNL     1     -26.281   3.621  12.191  1.00  0.00    +0.021 A 
ATOM     16 Cl   UNL     1     -29.264   1.330  14.678  1.00  0.00    -0.083 Cl
ENDROOT
TORSDOF 0
ENDMDL
MODEL 6
REMARK VINA RESULT:    -7.613      8.204     10.132
REMARK INTER + INTRA:          -7.613
REMARK INTER:                  -7.613
REMARK INTRA:                   0.000
REMARK UNBOUND:                 0.000
REMARK SMILES Clc1ccc2c(Cl)c3c(nc2c1)CCCC3
REMARK SMILES IDX 1 1 2 2 12 3 11 4 10 5 9 6 8 7 16 8 15 9 14 10 13 11 6 12
REMARK SMILES IDX 5 13 4 14 3 15 7 16
REMARK H PARENT
ROOT
ATOM      1 Cl   UNL     1     -30.820  -0.801  10.038  1.00  0.00    -0.084 Cl
ATOM      2  C   UNL     1     -29.382   0.101  10.315  1.00  0.00    +0.043 A 
ATOM      3  C   UNL     1     -28.141  -0.520  10.202  1.00  0.00    +0.049 A 
ATOM      4  C   UNL     1     -26.962   0.178  10.419  1.00  0.00    +0.073 A 
ATOM      5  N   UNL     1     -25.809  -0.493  10.296  1.00  0.00    -0.252 NA
ATOM      6  C   UNL     1     -24.635   0.149  10.502  1.00  0.00    +0.046 A 
ATOM      7  C   UNL     1     -24.555   1.501  10.820  1.00  0.00    -0.007 A 
ATOM      8  C   UNL     1     -23.221   2.166  11.065  1.00  0.00    +0.039 C 
ATOM      9  C   UNL     1     -22.020   1.356  10.576  1.00  0.00    +0.005 C 
ATOM     10  C   UNL     1     -22.161  -0.106  10.973  1.00  0.00    +0.007 C 
ATOM     11  C   UNL     1     -23.402  -0.698  10.315  1.00  0.00    +0.056 C 
ATOM     12  C   UNL     1     -25.772   2.189  10.965  1.00  0.00    +0.055 A 
ATOM     13  C   UNL     1     -27.016   1.541  10.760  1.00  0.00    +0.019 A 
ATOM     14  C   UNL     1     -28.289   2.160  10.874  1.00  0.00    +0.013 A 
ATOM     15  C   UNL     1     -29.464   1.443  10.651  1.00  0.00    +0.021 A 
ATOM     16 Cl   UNL     1     -25.743   3.871  11.420  1.00  0.00    -0.083 Cl
ENDROOT
TORSDOF 0
ENDMDL
MODEL 7
REMARK VINA RESULT:    -7.265      8.408      9.664
REMARK INTER + INTRA:          -7.265
REMARK INTER:                  -7.265
REMARK INTRA:                   0.000
REMARK UNBOUND:                 0.000
REMARK SMILES Clc1ccc2c(Cl)c3c(nc2c1)CCCC3
REMARK SMILES IDX 1 1 2 2 12 3 11 4 10 5 9 6 8 7 16 8 15 9 14 10 13 11 6 12
REMARK SMILES IDX 5 13 4 14 3 15 7 16
REMARK H PARENT
ROOT
ATOM      1 Cl   UNL     1     -31.762   0.426  11.855  1.00  0.00    -0.084 Cl
ATOM      2  C   UNL     1     -32.657   1.669  11.073  1.00  0.00    +0.043 A 
ATOM      3  C   UNL     1     -34.006   1.845  11.371  1.00  0.00    +0.049 A 
ATOM      4  C   UNL     1     -34.757   2.837  10.758  1.00  0.00    +0.073 A 
ATOM      5  N   UNL     1     -36.049   2.939  11.095  1.00  0.00    -0.252 NA
ATOM      6  C   UNL     1     -36.820   3.891  10.518  1.00  0.00    +0.046 A 
ATOM      7  C   UNL     1     -36.328   4.806   9.592  1.00  0.00    -0.007 A 
ATOM      8  C   UNL     1     -37.235   5.835   8.959  1.00  0.00    +0.039 C 
ATOM      9  C   UNL     1     -38.571   6.018   9.678  1.00  0.00    +0.005 C 
ATOM     10  C   UNL     1     -39.179   4.670  10.035  1.00  0.00    +0.007 C 
ATOM     11  C   UNL     1     -38.251   3.926  10.989  1.00  0.00    +0.056 C 
ATOM     12  C   UNL     1     -34.976   4.677   9.233  1.00  0.00    +0.055 A 
ATOM     13  C   UNL     1     -34.148   3.686   9.816  1.00  0.00    +0.019 A 
ATOM     14  C   UNL     1     -32.772   3.493   9.521  1.00  0.00    +0.013 A 
ATOM     15  C   UNL     1     -32.033   2.490  10.148  1.00  0.00    +0.021 A 
ATOM     16 Cl   UNL     1     -34.314   5.755   8.033  1.00  0.00    -0.083 Cl
ENDROOT
TORSDOF 0
ENDMDL
MODEL 8
REMARK VINA RESULT:    -7.155      5.371      6.982
REMARK INTER + INTRA:          -7.155
REMARK INTER:                  -7.155
REMARK INTRA:                   0.000
REMARK UNBOUND:                 0.000
REMARK SMILES Clc1ccc2c(Cl)c3c(nc2c1)CCCC3
REMARK SMILES IDX 1 1 2 2 12 3 11 4 10 5 9 6 8 7 16 8 15 9 14 10 13 11 6 12
REMARK SMILES IDX 5 13 4 14 3 15 7 16
REMARK H PARENT
ROOT
ATOM      1 Cl   UNL     1     -28.462   9.261   7.510  1.00  0.00    -0.084 Cl
ATOM      2  C   UNL     1     -29.899   8.361   7.220  1.00  0.00    +0.043 A 
ATOM      3  C   UNL     1     -30.335   7.430   8.158  1.00  0.00    +0.049 A 
ATOM      4  C   UNL     1     -31.489   6.686   7.954  1.00  0.00    +0.073 A 
ATOM      5  N   UNL     1     -31.839   5.807   8.902  1.00  0.00    -0.252 NA
ATOM      6  C   UNL     1     -32.956   5.058   8.742  1.00  0.00    +0.046 A 
ATOM      7  C   UNL     1     -33.792   5.171   7.636  1.00  0.00    -0.007 A 
ATOM      8  C   UNL     1     -35.015   4.295   7.493  1.00  0.00    +0.039 C 
ATOM      9  C   UNL     1     -35.436   3.593   8.785  1.00  0.00    +0.005 C 
ATOM     10  C   UNL     1     -34.227   3.003   9.494  1.00  0.00    +0.007 C 
ATOM     11  C   UNL     1     -33.264   4.119   9.881  1.00  0.00    +0.056 C 
ATOM     12  C   UNL     1     -33.404   6.083   6.640  1.00  0.00    +0.055 A 
ATOM     13  C   UNL     1     -32.237   6.875   6.779  1.00  0.00    +0.019 A 
ATOM     14  C   UNL     1     -31.778   7.828   5.830  1.00  0.00    +0.013 A 
ATOM     15  C   UNL     1     -30.616   8.566   6.052  1.00  0.00    +0.021 A 
ATOM     16 Cl   UNL     1     -34.377   6.228   5.202  1.00  0.00    -0.083 Cl
ENDROOT
TORSDOF 0
ENDMDL
MODEL 9
REMARK VINA RESULT:    -7.154      8.084     10.323
REMARK INTER + INTRA:          -7.154
REMARK INTER:                  -7.154
REMARK INTRA:                   0.000
REMARK UNBOUND:                 0.000
REMARK SMILES Clc1ccc2c(Cl)c3c(nc2c1)CCCC3
REMARK SMILES IDX 1 1 2 2 12 3 11 4 10 5 9 6 8 7 16 8 15 9 14 10 13 11 6 12
REMARK SMILES IDX 5 13 4 14 3 15 7 16
REMARK H PARENT
ROOT
ATOM      1 Cl   UNL     1     -39.269   5.426  10.310  1.00  0.00    -0.084 Cl
ATOM      2  C   UNL     1     -37.606   5.155   9.969  1.00  0.00    +0.043 A 
ATOM      3  C   UNL     1     -36.943   4.082  10.559  1.00  0.00    +0.049 A 
ATOM      4  C   UNL     1     -35.602   3.834  10.307  1.00  0.00    +0.073 A 
ATOM      5  N   UNL     1     -35.036   2.785  10.918  1.00  0.00    -0.252 NA
ATOM      6  C   UNL     1     -33.728   2.509  10.702  1.00  0.00    +0.046 A 
ATOM      7  C   UNL     1     -32.927   3.256   9.845  1.00  0.00    -0.007 A 
ATOM      8  C   UNL     1     -31.465   2.922   9.657  1.00  0.00    +0.039 C 
ATOM      9  C   UNL     1     -31.071   1.534  10.163  1.00  0.00    +0.005 C 
ATOM     10  C   UNL     1     -31.684   1.267  11.530  1.00  0.00    +0.007 C 
ATOM     11  C   UNL     1     -33.204   1.293  11.424  1.00  0.00    +0.056 C 
ATOM     12  C   UNL     1     -33.527   4.365   9.225  1.00  0.00    +0.055 A 
ATOM     13  C   UNL     1     -34.893   4.681   9.437  1.00  0.00    +0.019 A 
ATOM     14  C   UNL     1     -35.581   5.772   8.844  1.00  0.00    +0.013 A 
ATOM     15  C   UNL     1     -36.930   6.006   9.109  1.00  0.00    +0.021 A 
ATOM     16 Cl   UNL     1     -32.561   5.377   8.186  1.00  0.00    -0.083 Cl
ENDROOT
TORSDOF 0
ENDMDL
