MODEL 1
REMARK VINA RESULT:    -8.973      0.000      0.000
REMARK INTER + INTRA:         -12.339
REMARK INTER:                 -11.595
REMARK INTRA:                  -0.744
REMARK UNBOUND:                -0.744
REMARK SMILES Oc1ccccc1C=Nc1ccc(N=Cc2ccccc2O)cc1
REMARK SMILES IDX 10 1 11 2 12 3 13 4 23 5 24 6 9 7 8 8 7 9 2 10 3 11 6 12
REMARK SMILES IDX 4 13 5 14 1 15 14 17 15 18 16 19 21 20 17 21 20 22 18 23
REMARK SMILES IDX 19 24 22 25
REMARK H PARENT 1 16 22 26
ROOT
ATOM      1  C   UNL     1     -33.872   3.412  10.003  1.00  0.00    +0.063 A 
ATOM      2  C   UNL     1     -32.510   3.615   9.772  1.00  0.00    +0.030 A 
ATOM      3  C   UNL     1     -31.647   2.526   9.617  1.00  0.00    +0.030 A 
ATOM      4  C   UNL     1     -32.131   1.219   9.729  1.00  0.00    +0.063 A 
ATOM      5  C   UNL     1     -33.494   1.017   9.960  1.00  0.00    +0.030 A 
ATOM      6  C   UNL     1     -34.355   2.105  10.118  1.00  0.00    +0.030 A 
ENDROOT
BRANCH   1   7
ATOM      7  N   UNL     1     -34.709   4.520  10.178  1.00  0.00    -0.256 NA
ATOM      8  C   UNL     1     -35.128   5.234   9.173  1.00  0.00    +0.123 C 
BRANCH   8   9
ATOM      9  C   UNL     1     -34.781   5.151   7.737  1.00  0.00    +0.035 A 
ATOM     10  C   UNL     1     -34.371   6.311   7.071  1.00  0.00    +0.124 A 
ATOM     11  C   UNL     1     -34.014   6.263   5.723  1.00  0.00    +0.047 A 
ATOM     12  C   UNL     1     -34.796   3.932   7.053  1.00  0.00    +0.013 A 
ATOM     13  C   UNL     1     -34.055   5.047   5.040  1.00  0.00    +0.004 A 
ATOM     14  C   UNL     1     -34.442   3.883   5.703  1.00  0.00    +0.001 A 
BRANCH  10  15
ATOM     15  O   UNL     1     -34.329   7.503   7.740  1.00  0.00    -0.507 OA
ATOM     16  H   UNL     1     -35.015   7.506   8.429  1.00  0.00    +0.293 HD
ENDBRANCH  10  15
ENDBRANCH   8   9
ENDBRANCH   1   7
BRANCH   4  17
ATOM     17  N   UNL     1     -31.295   0.114   9.550  1.00  0.00    -0.256 NA
ATOM     18  C   UNL     1     -30.423  -0.250  10.446  1.00  0.00    +0.123 C 
BRANCH  18  19
ATOM     19  C   UNL     1     -30.167   0.278  11.807  1.00  0.00    +0.035 A 
ATOM     20  C   UNL     1     -29.009   1.033  12.029  1.00  0.00    +0.124 A 
ATOM     21  C   UNL     1     -31.012  -0.014  12.881  1.00  0.00    +0.013 A 
ATOM     22  C   UNL     1     -28.714   1.520  13.304  1.00  0.00    +0.047 A 
ATOM     23  C   UNL     1     -30.720   0.475  14.157  1.00  0.00    +0.001 A 
ATOM     24  C   UNL     1     -29.576   1.243  14.366  1.00  0.00    +0.004 A 
BRANCH  20  25
ATOM     25  O   UNL     1     -28.162   1.305  10.990  1.00  0.00    -0.507 OA
ATOM     26  H   UNL     1     -27.920   2.246  11.013  1.00  0.00    +0.293 HD
ENDBRANCH  20  25
ENDBRANCH  18  19
ENDBRANCH   4  17
TORSDOF 6
ENDMDL
MODEL 2
REMARK VINA RESULT:    -8.884      2.315      7.629
REMARK INTER + INTRA:         -12.225
REMARK INTER:                 -10.930
REMARK INTRA:                  -1.295
REMARK UNBOUND:                -0.744
REMARK SMILES Oc1ccccc1C=Nc1ccc(N=Cc2ccccc2O)cc1
REMARK SMILES IDX 10 1 11 2 12 3 13 4 23 5 24 6 9 7 8 8 7 9 2 10 3 11 6 12
REMARK SMILES IDX 4 13 5 14 1 15 14 17 15 18 16 19 21 20 17 21 20 22 18 23
REMARK SMILES IDX 19 24 22 25
REMARK H PARENT 1 16 22 26
ROOT
ATOM      1  C   UNL     1     -32.811   2.013  10.181  1.00  0.00    +0.063 A 
ATOM      2  C   UNL     1     -32.699   3.262   9.566  1.00  0.00    +0.030 A 
ATOM      3  C   UNL     1     -33.251   4.399  10.164  1.00  0.00    +0.030 A 
ATOM      4  C   UNL     1     -33.953   4.294  11.367  1.00  0.00    +0.063 A 
ATOM      5  C   UNL     1     -34.064   3.045  11.983  1.00  0.00    +0.030 A 
ATOM      6  C   UNL     1     -33.515   1.908  11.384  1.00  0.00    +0.030 A 
ENDROOT
BRANCH   1   7
ATOM      7  N   UNL     1     -32.270   0.887   9.549  1.00  0.00    -0.256 NA
ATOM      8  C   UNL     1     -31.263   0.231  10.051  1.00  0.00    +0.123 C 
BRANCH   8   9
ATOM      9  C   UNL     1     -30.431   0.528  11.238  1.00  0.00    +0.035 A 
ATOM     10  C   UNL     1     -29.389   1.454  11.120  1.00  0.00    +0.124 A 
ATOM     11  C   UNL     1     -28.600   1.774  12.226  1.00  0.00    +0.047 A 
ATOM     12  C   UNL     1     -30.703  -0.049  12.482  1.00  0.00    +0.013 A 
ATOM     13  C   UNL     1     -28.862   1.176  13.459  1.00  0.00    +0.004 A 
ATOM     14  C   UNL     1     -29.913   0.268  13.589  1.00  0.00    +0.001 A 
BRANCH  10  15
ATOM     15  O   UNL     1     -29.132   2.042   9.912  1.00  0.00    -0.507 OA
ATOM     16  H   UNL     1     -29.964   2.131   9.418  1.00  0.00    +0.293 HD
ENDBRANCH  10  15
ENDBRANCH   8   9
ENDBRANCH   1   7
BRANCH   4  17
ATOM     17  N   UNL     1     -34.490   5.418  11.999  1.00  0.00    -0.256 NA
ATOM     18  C   UNL     1     -35.684   5.864  11.730  1.00  0.00    +0.123 C 
BRANCH  18  19
ATOM     19  C   UNL     1     -36.741   5.308  10.853  1.00  0.00    +0.035 A 
ATOM     20  C   UNL     1     -36.849   5.787   9.542  1.00  0.00    +0.124 A 
ATOM     21  C   UNL     1     -37.669   4.373  11.320  1.00  0.00    +0.013 A 
ATOM     22  C   UNL     1     -37.853   5.313   8.695  1.00  0.00    +0.047 A 
ATOM     23  C   UNL     1     -38.672   3.896  10.474  1.00  0.00    +0.001 A 
ATOM     24  C   UNL     1     -38.761   4.362   9.163  1.00  0.00    +0.004 A 
BRANCH  20  25
ATOM     25  O   UNL     1     -35.961   6.720   9.081  1.00  0.00    -0.507 OA
ATOM     26  H   UNL     1     -36.367   7.212   8.348  1.00  0.00    +0.293 HD
ENDBRANCH  20  25
ENDBRANCH  18  19
ENDBRANCH   4  17
TORSDOF 6
ENDMDL
MODEL 3
REMARK VINA RESULT:    -8.813      2.311      2.859
REMARK INTER + INTRA:         -12.133
REMARK INTER:                 -10.769
REMARK INTRA:                  -1.365
REMARK UNBOUND:                -0.744
REMARK SMILES Oc1ccccc1C=Nc1ccc(N=Cc2ccccc2O)cc1
REMARK SMILES IDX 10 1 11 2 12 3 13 4 23 5 24 6 9 7 8 8 7 9 2 10 3 11 6 12
REMARK SMILES IDX 4 13 5 14 1 15 14 17 15 18 16 19 21 20 17 21 20 22 18 23
REMARK SMILES IDX 19 24 22 25
REMARK H PARENT 1 16 22 26
ROOT
ATOM      1  C   UNL     1     -33.917   4.315  11.342  1.00  0.00    +0.063 A 
ATOM      2  C   UNL     1     -33.212   4.449  10.144  1.00  0.00    +0.030 A 
ATOM      3  C   UNL     1     -32.645   3.331   9.525  1.00  0.00    +0.030 A 
ATOM      4  C   UNL     1     -32.747   2.069  10.117  1.00  0.00    +0.063 A 
ATOM      5  C   UNL     1     -33.453   1.934  11.315  1.00  0.00    +0.030 A 
ATOM      6  C   UNL     1     -34.016   3.053  11.934  1.00  0.00    +0.030 A 
ENDROOT
BRANCH   1   7
ATOM      7  N   UNL     1     -34.453   5.454  11.952  1.00  0.00    -0.256 NA
ATOM      8  C   UNL     1     -35.690   5.819  11.767  1.00  0.00    +0.123 C 
BRANCH   8   9
ATOM      9  C   UNL     1     -36.723   5.256  10.870  1.00  0.00    +0.035 A 
ATOM     10  C   UNL     1     -36.760   5.673   9.534  1.00  0.00    +0.124 A 
ATOM     11  C   UNL     1     -37.707   5.145   8.656  1.00  0.00    +0.047 A 
ATOM     12  C   UNL     1     -37.619   4.278  11.312  1.00  0.00    +0.013 A 
ATOM     13  C   UNL     1     -38.614   4.187   9.110  1.00  0.00    +0.004 A 
ATOM     14  C   UNL     1     -38.569   3.751  10.435  1.00  0.00    +0.001 A 
BRANCH  10  15
ATOM     15  O   UNL     1     -35.871   6.611   9.088  1.00  0.00    -0.507 OA
ATOM     16  H   UNL     1     -36.331   7.460   8.980  1.00  0.00    +0.293 HD
ENDBRANCH  10  15
ENDBRANCH   8   9
ENDBRANCH   1   7
BRANCH   4  17
ATOM     17  N   UNL     1     -32.214   0.931   9.506  1.00  0.00    -0.256 NA
ATOM     18  C   UNL     1     -31.137   0.345   9.945  1.00  0.00    +0.123 C 
BRANCH  18  19
ATOM     19  C   UNL     1     -30.318   0.620  11.149  1.00  0.00    +0.035 A 
ATOM     20  C   UNL     1     -29.286   1.561  11.060  1.00  0.00    +0.124 A 
ATOM     21  C   UNL     1     -30.505  -0.083  12.342  1.00  0.00    +0.013 A 
ATOM     22  C   UNL     1     -28.470   1.824  12.162  1.00  0.00    +0.047 A 
ATOM     23  C   UNL     1     -29.692   0.181  13.447  1.00  0.00    +0.001 A 
ATOM     24  C   UNL     1     -28.679   1.134  13.358  1.00  0.00    +0.004 A 
BRANCH  20  25
ATOM     25  O   UNL     1     -29.079   2.238   9.890  1.00  0.00    -0.507 OA
ATOM     26  H   UNL     1     -29.601   1.822   9.184  1.00  0.00    +0.293 HD
ENDBRANCH  20  25
ENDBRANCH  18  19
ENDBRANCH   4  17
TORSDOF 6
ENDMDL
MODEL 4
REMARK VINA RESULT:    -8.650      1.478      2.015
REMARK INTER + INTRA:         -11.922
REMARK INTER:                 -10.766
REMARK INTRA:                  -1.155
REMARK UNBOUND:                -0.744
REMARK SMILES Oc1ccccc1C=Nc1ccc(N=Cc2ccccc2O)cc1
REMARK SMILES IDX 10 1 11 2 12 3 13 4 23 5 24 6 9 7 8 8 7 9 2 10 3 11 6 12
REMARK SMILES IDX 4 13 5 14 1 15 14 17 15 18 16 19 21 20 17 21 20 22 18 23
REMARK SMILES IDX 19 24 22 25
REMARK H PARENT 1 16 22 26
ROOT
ATOM      1  C   UNL     1     -33.758   2.894  10.306  1.00  0.00    +0.063 A 
ATOM      2  C   UNL     1     -32.455   3.242   9.942  1.00  0.00    +0.030 A 
ATOM      3  C   UNL     1     -31.486   2.255   9.743  1.00  0.00    +0.030 A 
ATOM      4  C   UNL     1     -31.800   0.907   9.942  1.00  0.00    +0.063 A 
ATOM      5  C   UNL     1     -33.103   0.559  10.305  1.00  0.00    +0.030 A 
ATOM      6  C   UNL     1     -34.070   1.547  10.507  1.00  0.00    +0.030 A 
ENDROOT
BRANCH   1   7
ATOM      7  N   UNL     1     -34.702   3.905  10.522  1.00  0.00    -0.256 NA
ATOM      8  C   UNL     1     -35.133   4.665   9.556  1.00  0.00    +0.123 C 
BRANCH   8   9
ATOM      9  C   UNL     1     -34.707   4.737   8.141  1.00  0.00    +0.035 A 
ATOM     10  C   UNL     1     -35.097   3.718   7.264  1.00  0.00    +0.124 A 
ATOM     11  C   UNL     1     -34.732   3.767   5.918  1.00  0.00    +0.047 A 
ATOM     12  C   UNL     1     -33.978   5.826   7.653  1.00  0.00    +0.013 A 
ATOM     13  C   UNL     1     -33.984   4.845   5.443  1.00  0.00    +0.004 A 
ATOM     14  C   UNL     1     -33.610   5.874   6.307  1.00  0.00    +0.001 A 
BRANCH  10  15
ATOM     15  O   UNL     1     -35.831   2.663   7.729  1.00  0.00    -0.507 OA
ATOM     16  H   UNL     1     -36.698   2.984   8.029  1.00  0.00    +0.293 HD
ENDBRANCH  10  15
ENDBRANCH   8   9
ENDBRANCH   1   7
BRANCH   4  17
ATOM     17  N   UNL     1     -30.858  -0.101   9.723  1.00  0.00    -0.256 NA
ATOM     18  C   UNL     1     -29.898  -0.351  10.567  1.00  0.00    +0.123 C 
BRANCH  18  19
ATOM     19  C   UNL     1     -29.622   0.223  11.904  1.00  0.00    +0.035 A 
ATOM     20  C   UNL     1     -30.416  -0.177  12.985  1.00  0.00    +0.124 A 
ATOM     21  C   UNL     1     -28.641   1.199  12.098  1.00  0.00    +0.013 A 
ATOM     22  C   UNL     1     -30.210   0.366  14.255  1.00  0.00    +0.047 A 
ATOM     23  C   UNL     1     -28.431   1.741  13.369  1.00  0.00    +0.001 A 
ATOM     24  C   UNL     1     -29.212   1.323  14.445  1.00  0.00    +0.004 A 
BRANCH  20  25
ATOM     25  O   UNL     1     -31.396  -1.114  12.803  1.00  0.00    -0.507 OA
ATOM     26  H   UNL     1     -31.567  -1.215  11.852  1.00  0.00    +0.293 HD
ENDBRANCH  20  25
ENDBRANCH  18  19
ENDBRANCH   4  17
TORSDOF 6
ENDMDL
MODEL 5
REMARK VINA RESULT:    -8.596      1.041      7.805
REMARK INTER + INTRA:         -11.853
REMARK INTER:                 -10.812
REMARK INTRA:                  -1.041
REMARK UNBOUND:                -0.744
REMARK SMILES Oc1ccccc1C=Nc1ccc(N=Cc2ccccc2O)cc1
REMARK SMILES IDX 10 1 11 2 12 3 13 4 23 5 24 6 9 7 8 8 7 9 2 10 3 11 6 12
REMARK SMILES IDX 4 13 5 14 1 15 14 17 15 18 16 19 21 20 17 21 20 22 18 23
REMARK SMILES IDX 19 24 22 25
REMARK H PARENT 1 16 22 26
ROOT
ATOM      1  C   UNL     1     -31.798   0.981   9.852  1.00  0.00    +0.063 A 
ATOM      2  C   UNL     1     -33.116   0.717  10.229  1.00  0.00    +0.030 A 
ATOM      3  C   UNL     1     -34.022   1.765  10.420  1.00  0.00    +0.030 A 
ATOM      4  C   UNL     1     -33.608   3.092  10.271  1.00  0.00    +0.063 A 
ATOM      5  C   UNL     1     -32.290   3.355   9.893  1.00  0.00    +0.030 A 
ATOM      6  C   UNL     1     -31.385   2.307   9.705  1.00  0.00    +0.030 A 
ENDROOT
BRANCH   1   7
ATOM      7  N   UNL     1     -30.906  -0.086   9.691  1.00  0.00    -0.256 NA
ATOM      8  C   UNL     1     -30.054  -0.419  10.617  1.00  0.00    +0.123 C 
BRANCH   8   9
ATOM      9  C   UNL     1     -29.748   0.236  11.908  1.00  0.00    +0.035 A 
ATOM     10  C   UNL     1     -30.508  -0.101  13.034  1.00  0.00    +0.124 A 
ATOM     11  C   UNL     1     -30.232   0.481  14.272  1.00  0.00    +0.047 A 
ATOM     12  C   UNL     1     -28.684   1.133  12.038  1.00  0.00    +0.013 A 
ATOM     13  C   UNL     1     -29.183   1.394  14.389  1.00  0.00    +0.004 A 
ATOM     14  C   UNL     1     -28.409   1.719  13.275  1.00  0.00    +0.001 A 
BRANCH  10  15
ATOM     15  O   UNL     1     -31.535  -0.997  12.921  1.00  0.00    -0.507 OA
ATOM     16  H   UNL     1     -31.206  -1.886  13.134  1.00  0.00    +0.293 HD
ENDBRANCH  10  15
ENDBRANCH   8   9
ENDBRANCH   1   7
BRANCH   4  17
ATOM     17  N   UNL     1     -34.500   4.156  10.429  1.00  0.00    -0.256 NA
ATOM     18  C   UNL     1     -34.879   4.900   9.430  1.00  0.00    +0.123 C 
BRANCH  18  19
ATOM     19  C   UNL     1     -34.592   4.781   7.981  1.00  0.00    +0.035 A 
ATOM     20  C   UNL     1     -34.000   5.865   7.321  1.00  0.00    +0.124 A 
ATOM     21  C   UNL     1     -34.956   3.648   7.249  1.00  0.00    +0.013 A 
ATOM     22  C   UNL     1     -33.744   5.805   5.950  1.00  0.00    +0.047 A 
ATOM     23  C   UNL     1     -34.698   3.585   5.878  1.00  0.00    +0.001 A 
ATOM     24  C   UNL     1     -34.090   4.660   5.231  1.00  0.00    +0.004 A 
BRANCH  20  25
ATOM     25  O   UNL     1     -33.661   6.989   8.023  1.00  0.00    -0.507 OA
ATOM     26  H   UNL     1     -34.221   7.052   8.814  1.00  0.00    +0.293 HD
ENDBRANCH  20  25
ENDBRANCH  18  19
ENDBRANCH   4  17
TORSDOF 6
ENDMDL
MODEL 6
REMARK VINA RESULT:    -8.102      2.163      2.992
REMARK INTER + INTRA:         -11.213
REMARK INTER:                 -10.103
REMARK INTRA:                  -1.110
REMARK UNBOUND:                -0.744
REMARK SMILES Oc1ccccc1C=Nc1ccc(N=Cc2ccccc2O)cc1
REMARK SMILES IDX 10 1 11 2 12 3 13 4 23 5 24 6 9 7 8 8 7 9 2 10 3 11 6 12
REMARK SMILES IDX 4 13 5 14 1 15 14 17 15 18 16 19 21 20 17 21 20 22 18 23
REMARK SMILES IDX 19 24 22 25
REMARK H PARENT 1 16 22 26
ROOT
ATOM      1  C   UNL     1     -33.141   3.708  10.292  1.00  0.00    +0.063 A 
ATOM      2  C   UNL     1     -32.392   2.815   9.522  1.00  0.00    +0.030 A 
ATOM      3  C   UNL     1     -32.217   1.493   9.939  1.00  0.00    +0.030 A 
ATOM      4  C   UNL     1     -32.759   1.057  11.151  1.00  0.00    +0.063 A 
ATOM      5  C   UNL     1     -33.509   1.949  11.921  1.00  0.00    +0.030 A 
ATOM      6  C   UNL     1     -33.681   3.272  11.505  1.00  0.00    +0.030 A 
ENDROOT
BRANCH   1   7
ATOM      7  N   UNL     1     -33.280   5.033   9.862  1.00  0.00    -0.256 NA
ATOM      8  C   UNL     1     -34.445   5.606   9.760  1.00  0.00    +0.123 C 
BRANCH   8   9
ATOM      9  C   UNL     1     -35.802   5.043   9.941  1.00  0.00    +0.035 A 
ATOM     10  C   UNL     1     -36.310   4.177   8.966  1.00  0.00    +0.124 A 
ATOM     11  C   UNL     1     -37.576   3.610   9.116  1.00  0.00    +0.047 A 
ATOM     12  C   UNL     1     -36.555   5.309  11.088  1.00  0.00    +0.013 A 
ATOM     13  C   UNL     1     -38.333   3.899  10.252  1.00  0.00    +0.004 A 
ATOM     14  C   UNL     1     -37.824   4.745  11.238  1.00  0.00    +0.001 A 
BRANCH  10  15
ATOM     15  O   UNL     1     -35.569   3.892   7.853  1.00  0.00    -0.507 OA
ATOM     16  H   UNL     1     -35.938   4.371   7.092  1.00  0.00    +0.293 HD
ENDBRANCH  10  15
ENDBRANCH   8   9
ENDBRANCH   1   7
BRANCH   4  17
ATOM     17  N   UNL     1     -32.622  -0.267  11.577  1.00  0.00    -0.256 NA
ATOM     18  C   UNL     1     -31.633  -0.657  12.329  1.00  0.00    +0.123 C 
BRANCH  18  19
ATOM     19  C   UNL     1     -30.547   0.124  12.968  1.00  0.00    +0.035 A 
ATOM     20  C   UNL     1     -29.402   0.420  12.219  1.00  0.00    +0.124 A 
ATOM     21  C   UNL     1     -30.609   0.509  14.310  1.00  0.00    +0.013 A 
ATOM     22  C   UNL     1     -28.342   1.124  12.795  1.00  0.00    +0.047 A 
ATOM     23  C   UNL     1     -29.551   1.216  14.886  1.00  0.00    +0.001 A 
ATOM     24  C   UNL     1     -28.422   1.526  14.129  1.00  0.00    +0.004 A 
BRANCH  20  25
ATOM     25  O   UNL     1     -29.320   0.027  10.912  1.00  0.00    -0.507 OA
ATOM     26  H   UNL     1     -30.044  -0.592  10.719  1.00  0.00    +0.293 HD
ENDBRANCH  20  25
ENDBRANCH  18  19
ENDBRANCH   4  17
TORSDOF 6
ENDMDL
MODEL 7
REMARK VINA RESULT:    -8.097      4.044      7.922
REMARK INTER + INTRA:         -11.207
REMARK INTER:                 -10.630
REMARK INTRA:                  -0.577
REMARK UNBOUND:                -0.744
REMARK SMILES Oc1ccccc1C=Nc1ccc(N=Cc2ccccc2O)cc1
REMARK SMILES IDX 10 1 11 2 12 3 13 4 23 5 24 6 9 7 8 8 7 9 2 10 3 11 6 12
REMARK SMILES IDX 4 13 5 14 1 15 14 17 15 18 16 19 21 20 17 21 20 22 18 23
REMARK SMILES IDX 19 24 22 25
REMARK H PARENT 1 16 22 26
ROOT
ATOM      1  C   UNL     1     -27.606   2.506  11.195  1.00  0.00    +0.063 A 
ATOM      2  C   UNL     1     -27.649   2.479  12.590  1.00  0.00    +0.030 A 
ATOM      3  C   UNL     1     -28.445   1.542  13.257  1.00  0.00    +0.030 A 
ATOM      4  C   UNL     1     -29.236   0.645  12.533  1.00  0.00    +0.063 A 
ATOM      5  C   UNL     1     -29.191   0.672  11.137  1.00  0.00    +0.030 A 
ATOM      6  C   UNL     1     -28.398   1.611  10.472  1.00  0.00    +0.030 A 
ENDROOT
BRANCH   1   7
ATOM      7  N   UNL     1     -26.819   3.470  10.553  1.00  0.00    -0.256 NA
ATOM      8  C   UNL     1     -25.624   3.202  10.110  1.00  0.00    +0.123 C 
BRANCH   8   9
ATOM      9  C   UNL     1     -24.813   1.972  10.247  1.00  0.00    +0.035 A 
ATOM     10  C   UNL     1     -23.597   2.036  10.938  1.00  0.00    +0.124 A 
ATOM     11  C   UNL     1     -22.819   0.890  11.105  1.00  0.00    +0.047 A 
ATOM     12  C   UNL     1     -25.262   0.743   9.755  1.00  0.00    +0.013 A 
ATOM     13  C   UNL     1     -23.262  -0.328  10.591  1.00  0.00    +0.004 A 
ATOM     14  C   UNL     1     -24.483  -0.404   9.919  1.00  0.00    +0.001 A 
BRANCH  10  15
ATOM     15  O   UNL     1     -23.163   3.230  11.443  1.00  0.00    -0.507 OA
ATOM     16  H   UNL     1     -22.932   3.822  10.709  1.00  0.00    +0.293 HD
ENDBRANCH  10  15
ENDBRANCH   8   9
ENDBRANCH   1   7
BRANCH   4  17
ATOM     17  N   UNL     1     -30.018  -0.319  13.174  1.00  0.00    -0.256 NA
ATOM     18  C   UNL     1     -31.314  -0.356  13.052  1.00  0.00    +0.123 C 
BRANCH  18  19
ATOM     19  C   UNL     1     -32.222   0.455  12.207  1.00  0.00    +0.035 A 
ATOM     20  C   UNL     1     -32.494   0.021  10.904  1.00  0.00    +0.124 A 
ATOM     21  C   UNL     1     -32.755   1.668  12.651  1.00  0.00    +0.013 A 
ATOM     22  C   UNL     1     -33.318   0.774  10.064  1.00  0.00    +0.047 A 
ATOM     23  C   UNL     1     -33.581   2.421  11.814  1.00  0.00    +0.001 A 
ATOM     24  C   UNL     1     -33.865   1.972  10.524  1.00  0.00    +0.004 A 
BRANCH  20  25
ATOM     25  O   UNL     1     -31.959  -1.153  10.450  1.00  0.00    -0.507 OA
ATOM     26  H   UNL     1     -31.237  -1.424  11.040  1.00  0.00    +0.293 HD
ENDBRANCH  20  25
ENDBRANCH  18  19
ENDBRANCH   4  17
TORSDOF 6
ENDMDL
MODEL 8
REMARK VINA RESULT:    -8.022      4.584      7.277
REMARK INTER + INTRA:         -11.111
REMARK INTER:                 -10.985
REMARK INTRA:                  -0.126
REMARK UNBOUND:                -0.744
REMARK SMILES Oc1ccccc1C=Nc1ccc(N=Cc2ccccc2O)cc1
REMARK SMILES IDX 10 1 11 2 12 3 13 4 23 5 24 6 9 7 8 8 7 9 2 10 3 11 6 12
REMARK SMILES IDX 4 13 5 14 1 15 14 17 15 18 16 19 21 20 17 21 20 22 18 23
REMARK SMILES IDX 19 24 22 25
REMARK H PARENT 1 16 22 26
ROOT
ATOM      1  C   UNL     1     -31.600   8.686   6.941  1.00  0.00    +0.063 A 
ATOM      2  C   UNL     1     -31.827   7.736   7.939  1.00  0.00    +0.030 A 
ATOM      3  C   UNL     1     -32.497   6.544   7.644  1.00  0.00    +0.030 A 
ATOM      4  C   UNL     1     -32.979   6.306   6.355  1.00  0.00    +0.063 A 
ATOM      5  C   UNL     1     -32.751   7.255   5.356  1.00  0.00    +0.030 A 
ATOM      6  C   UNL     1     -32.084   8.447   5.652  1.00  0.00    +0.030 A 
ENDROOT
BRANCH   1   7
ATOM      7  N   UNL     1     -30.948   9.880   7.269  1.00  0.00    -0.256 NA
ATOM      8  C   UNL     1     -29.650   9.961   7.344  1.00  0.00    +0.123 C 
BRANCH   8   9
ATOM      9  C   UNL     1     -28.624   8.901   7.227  1.00  0.00    +0.035 A 
ATOM     10  C   UNL     1     -27.615   9.038   6.267  1.00  0.00    +0.124 A 
ATOM     11  C   UNL     1     -26.619   8.069   6.145  1.00  0.00    +0.047 A 
ATOM     12  C   UNL     1     -28.607   7.803   8.092  1.00  0.00    +0.013 A 
ATOM     13  C   UNL     1     -26.622   6.963   6.996  1.00  0.00    +0.004 A 
ATOM     14  C   UNL     1     -27.612   6.830   7.970  1.00  0.00    +0.001 A 
BRANCH  10  15
ATOM     15  O   UNL     1     -27.610  10.122   5.434  1.00  0.00    -0.507 OA
ATOM     16  H   UNL     1     -28.351  10.048   4.809  1.00  0.00    +0.293 HD
ENDBRANCH  10  15
ENDBRANCH   8   9
ENDBRANCH   1   7
BRANCH   4  17
ATOM     17  N   UNL     1     -33.627   5.111   6.027  1.00  0.00    -0.256 NA
ATOM     18  C   UNL     1     -34.417   4.498   6.861  1.00  0.00    +0.123 C 
BRANCH  18  19
ATOM     19  C   UNL     1     -34.891   4.899   8.207  1.00  0.00    +0.035 A 
ATOM     20  C   UNL     1     -34.313   4.296   9.330  1.00  0.00    +0.124 A 
ATOM     21  C   UNL     1     -35.940   5.806   8.378  1.00  0.00    +0.013 A 
ATOM     22  C   UNL     1     -34.755   4.622  10.614  1.00  0.00    +0.047 A 
ATOM     23  C   UNL     1     -36.381   6.135   9.662  1.00  0.00    +0.001 A 
ATOM     24  C   UNL     1     -35.787   5.547  10.777  1.00  0.00    +0.004 A 
BRANCH  20  25
ATOM     25  O   UNL     1     -33.302   3.388   9.174  1.00  0.00    -0.507 OA
ATOM     26  H   UNL     1     -33.562   2.547   9.585  1.00  0.00    +0.293 HD
ENDBRANCH  20  25
ENDBRANCH  18  19
ENDBRANCH   4  17
TORSDOF 6
ENDMDL
MODEL 9
REMARK VINA RESULT:    -7.992      3.763      5.819
REMARK INTER + INTRA:         -11.072
REMARK INTER:                 -11.247
REMARK INTRA:                   0.175
REMARK UNBOUND:                -0.744
REMARK SMILES Oc1ccccc1C=Nc1ccc(N=Cc2ccccc2O)cc1
REMARK SMILES IDX 10 1 11 2 12 3 13 4 23 5 24 6 9 7 8 8 7 9 2 10 3 11 6 12
REMARK SMILES IDX 4 13 5 14 1 15 14 17 15 18 16 19 21 20 17 21 20 22 18 23
REMARK SMILES IDX 19 24 22 25
REMARK H PARENT 1 16 22 26
ROOT
ATOM      1  C   UNL     1     -32.462   4.869   9.785  1.00  0.00    +0.063 A 
ATOM      2  C   UNL     1     -32.319   3.613   9.193  1.00  0.00    +0.030 A 
ATOM      3  C   UNL     1     -33.255   2.603   9.435  1.00  0.00    +0.030 A 
ATOM      4  C   UNL     1     -34.327   2.829  10.304  1.00  0.00    +0.063 A 
ATOM      5  C   UNL     1     -34.470   4.086  10.895  1.00  0.00    +0.030 A 
ATOM      6  C   UNL     1     -33.532   5.093  10.655  1.00  0.00    +0.030 A 
ENDROOT
BRANCH   1   7
ATOM      7  N   UNL     1     -31.496   5.854   9.543  1.00  0.00    -0.256 NA
ATOM      8  C   UNL     1     -31.522   6.598   8.475  1.00  0.00    +0.123 C 
BRANCH   8   9
ATOM      9  C   UNL     1     -32.414   6.538   7.296  1.00  0.00    +0.035 A 
ATOM     10  C   UNL     1     -32.069   7.262   6.148  1.00  0.00    +0.124 A 
ATOM     11  C   UNL     1     -32.876   7.210   5.011  1.00  0.00    +0.047 A 
ATOM     12  C   UNL     1     -33.555   5.731   7.284  1.00  0.00    +0.013 A 
ATOM     13  C   UNL     1     -34.026   6.421   5.015  1.00  0.00    +0.004 A 
ATOM     14  C   UNL     1     -34.365   5.680   6.148  1.00  0.00    +0.001 A 
BRANCH  10  15
ATOM     15  O   UNL     1     -30.940   8.034   6.143  1.00  0.00    -0.507 OA
ATOM     16  H   UNL     1     -30.178   7.484   5.896  1.00  0.00    +0.293 HD
ENDBRANCH  10  15
ENDBRANCH   8   9
ENDBRANCH   1   7
BRANCH   4  17
ATOM     17  N   UNL     1     -35.292   1.846  10.542  1.00  0.00    -0.256 NA
ATOM     18  C   UNL     1     -36.567   2.107  10.530  1.00  0.00    +0.123 C 
BRANCH  18  19
ATOM     19  C   UNL     1     -37.288   3.356  10.191  1.00  0.00    +0.035 A 
ATOM     20  C   UNL     1     -37.317   3.775   8.855  1.00  0.00    +0.124 A 
ATOM     21  C   UNL     1     -37.877   4.157  11.174  1.00  0.00    +0.013 A 
ATOM     22  C   UNL     1     -37.957   4.964   8.500  1.00  0.00    +0.047 A 
ATOM     23  C   UNL     1     -38.520   5.345  10.819  1.00  0.00    +0.001 A 
ATOM     24  C   UNL     1     -38.563   5.746   9.485  1.00  0.00    +0.004 A 
BRANCH  20  25
ATOM     25  O   UNL     1     -36.724   3.012   7.887  1.00  0.00    -0.507 OA
ATOM     26  H   UNL     1     -35.789   3.264   7.812  1.00  0.00    +0.293 HD
ENDBRANCH  20  25
ENDBRANCH  18  19
ENDBRANCH   4  17
TORSDOF 6
ENDMDL
