MODEL 1
REMARK VINA RESULT:    -8.736      0.000      0.000
REMARK INTER + INTRA:          -8.736
REMARK INTER:                  -8.736
REMARK INTRA:                   0.000
REMARK UNBOUND:                 0.000
REMARK SMILES CN1c2ccccc2S(=O)c2ccccc21
REMARK SMILES IDX 1 1 2 2 3 3 8 4 7 5 6 6 5 7 4 8 9 9 10 10 11 11 16 12 15 13
REMARK SMILES IDX 14 14 13 15 12 16
REMARK H PARENT
ROOT
ATOM      1  C   UNL     1     -30.284   7.606   7.677  1.00  0.00    +0.150 C 
ATOM      2  N   UNL     1     -29.073   8.236   7.150  1.00  0.00    -0.343 N 
ATOM      3  C   UNL     1     -27.840   7.561   7.326  1.00  0.00    +0.058 A 
ATOM      4  C   UNL     1     -26.702   7.962   6.598  1.00  0.00    +0.067 A 
ATOM      5  C   UNL     1     -25.457   7.343   6.808  1.00  0.00    +0.020 A 
ATOM      6  C   UNL     1     -25.322   6.319   7.740  1.00  0.00    +0.001 A 
ATOM      7  C   UNL     1     -26.433   5.904   8.462  1.00  0.00    +0.002 A 
ATOM      8  C   UNL     1     -27.674   6.518   8.259  1.00  0.00    +0.027 A 
ATOM      9  S   UNL     1     -26.832   9.176   5.275  1.00  0.00    +0.089 S 
ATOM     10  O   UNL     1     -25.564   9.979   5.309  1.00  0.00    -0.249 OA
ATOM     11  C   UNL     1     -28.101  10.195   6.047  1.00  0.00    +0.067 A 
ATOM     12  C   UNL     1     -29.125   9.612   6.820  1.00  0.00    +0.058 A 
ATOM     13  C   UNL     1     -30.147  10.464   7.284  1.00  0.00    +0.027 A 
ATOM     14  C   UNL     1     -30.148  11.834   6.998  1.00  0.00    +0.002 A 
ATOM     15  C   UNL     1     -29.125  12.389   6.241  1.00  0.00    +0.001 A 
ATOM     16  C   UNL     1     -28.106  11.571   5.764  1.00  0.00    +0.020 A 
ENDROOT
TORSDOF 0
ENDMDL
MODEL 2
REMARK VINA RESULT:    -7.835      2.486      4.236
REMARK INTER + INTRA:          -7.835
REMARK INTER:                  -7.835
REMARK INTRA:                   0.000
REMARK UNBOUND:                 0.000
REMARK SMILES CN1c2ccccc2S(=O)c2ccccc21
REMARK SMILES IDX 1 1 2 2 3 3 8 4 7 5 6 6 5 7 4 8 9 9 10 10 11 11 16 12 15 13
REMARK SMILES IDX 14 14 13 15 12 16
REMARK H PARENT
ROOT
ATOM      1  C   UNL     1     -27.557   8.089   7.521  1.00  0.00    +0.150 C 
ATOM      2  N   UNL     1     -28.578   9.091   7.215  1.00  0.00    -0.343 N 
ATOM      3  C   UNL     1     -29.939   8.719   7.345  1.00  0.00    +0.058 A 
ATOM      4  C   UNL     1     -30.946   9.704   7.351  1.00  0.00    +0.067 A 
ATOM      5  C   UNL     1     -32.304   9.347   7.416  1.00  0.00    +0.020 A 
ATOM      6  C   UNL     1     -32.683   8.009   7.478  1.00  0.00    +0.001 A 
ATOM      7  C   UNL     1     -31.705   7.023   7.481  1.00  0.00    +0.002 A 
ATOM      8  C   UNL     1     -30.352   7.374   7.414  1.00  0.00    +0.027 A 
ATOM      9  S   UNL     1     -30.526  11.453   7.422  1.00  0.00    +0.089 S 
ATOM     10  O   UNL     1     -31.557  12.171   6.598  1.00  0.00    -0.249 OA
ATOM     11  C   UNL     1     -29.042  11.356   6.407  1.00  0.00    +0.067 A 
ATOM     12  C   UNL     1     -28.190  10.237   6.478  1.00  0.00    +0.058 A 
ATOM     13  C   UNL     1     -26.987  10.294   5.746  1.00  0.00    +0.027 A 
ATOM     14  C   UNL     1     -26.649  11.411   4.974  1.00  0.00    +0.002 A 
ATOM     15  C   UNL     1     -27.507  12.501   4.912  1.00  0.00    +0.001 A 
ATOM     16  C   UNL     1     -28.698  12.475   5.629  1.00  0.00    +0.020 A 
ENDROOT
TORSDOF 0
ENDMDL
MODEL 3
REMARK VINA RESULT:    -7.803      2.558      4.454
REMARK INTER + INTRA:          -7.803
REMARK INTER:                  -7.803
REMARK INTRA:                   0.000
REMARK UNBOUND:                 0.000
REMARK SMILES CN1c2ccccc2S(=O)c2ccccc21
REMARK SMILES IDX 1 1 2 2 3 3 8 4 7 5 6 6 5 7 4 8 9 9 10 10 11 11 16 12 15 13
REMARK SMILES IDX 14 14 13 15 12 16
REMARK H PARENT
ROOT
ATOM      1  C   UNL     1     -31.126  12.090   7.233  1.00  0.00    +0.150 C 
ATOM      2  N   UNL     1     -30.199  10.967   7.094  1.00  0.00    -0.343 N 
ATOM      3  C   UNL     1     -28.972  11.193   6.424  1.00  0.00    +0.058 A 
ATOM      4  C   UNL     1     -27.929  10.249   6.515  1.00  0.00    +0.067 A 
ATOM      5  C   UNL     1     -26.730  10.430   5.804  1.00  0.00    +0.020 A 
ATOM      6  C   UNL     1     -26.546  11.546   4.995  1.00  0.00    +0.001 A 
ATOM      7  C   UNL     1     -27.558  12.492   4.898  1.00  0.00    +0.002 A 
ATOM      8  C   UNL     1     -28.755  12.317   5.602  1.00  0.00    +0.027 A 
ATOM      9  S   UNL     1     -28.039   8.860   7.653  1.00  0.00    +0.089 S 
ATOM     10  O   UNL     1     -27.356   7.703   6.979  1.00  0.00    -0.249 OA
ATOM     11  C   UNL     1     -29.809   8.579   7.476  1.00  0.00    +0.067 A 
ATOM     12  C   UNL     1     -30.698   9.658   7.306  1.00  0.00    +0.058 A 
ATOM     13  C   UNL     1     -32.076   9.364   7.301  1.00  0.00    +0.027 A 
ATOM     14  C   UNL     1     -32.549   8.055   7.450  1.00  0.00    +0.002 A 
ATOM     15  C   UNL     1     -31.654   7.005   7.608  1.00  0.00    +0.001 A 
ATOM     16  C   UNL     1     -30.288   7.267   7.624  1.00  0.00    +0.020 A 
ENDROOT
TORSDOF 0
ENDMDL
MODEL 4
REMARK VINA RESULT:    -7.496      9.101     10.069
REMARK INTER + INTRA:          -7.496
REMARK INTER:                  -7.496
REMARK INTRA:                   0.000
REMARK UNBOUND:                 0.000
REMARK SMILES CN1c2ccccc2S(=O)c2ccccc21
REMARK SMILES IDX 1 1 2 2 3 3 8 4 7 5 6 6 5 7 4 8 9 9 10 10 11 11 16 12 15 13
REMARK SMILES IDX 14 14 13 15 12 16
REMARK H PARENT
ROOT
ATOM      1  C   UNL     1     -26.160  -1.624  10.598  1.00  0.00    +0.150 C 
ATOM      2  N   UNL     1     -26.042  -0.253  11.094  1.00  0.00    -0.343 N 
ATOM      3  C   UNL     1     -24.794   0.403  10.950  1.00  0.00    +0.058 A 
ATOM      4  C   UNL     1     -24.701   1.797  11.135  1.00  0.00    +0.067 A 
ATOM      5  C   UNL     1     -23.460   2.453  11.058  1.00  0.00    +0.020 A 
ATOM      6  C   UNL     1     -22.295   1.738  10.796  1.00  0.00    +0.001 A 
ATOM      7  C   UNL     1     -22.367   0.364  10.604  1.00  0.00    +0.002 A 
ATOM      8  C   UNL     1     -23.600  -0.294  10.681  1.00  0.00    +0.027 A 
ATOM      9  S   UNL     1     -26.180   2.804  11.330  1.00  0.00    +0.089 S 
ATOM     10  O   UNL     1     -25.823   3.902  12.291  1.00  0.00    -0.249 OA
ATOM     11  C   UNL     1     -27.135   1.598  12.267  1.00  0.00    +0.067 A 
ATOM     12  C   UNL     1     -27.031   0.221  11.991  1.00  0.00    +0.058 A 
ATOM     13  C   UNL     1     -27.902  -0.643  12.683  1.00  0.00    +0.027 A 
ATOM     14  C   UNL     1     -28.831  -0.162  13.611  1.00  0.00    +0.002 A 
ATOM     15  C   UNL     1     -28.912   1.199  13.875  1.00  0.00    +0.001 A 
ATOM     16  C   UNL     1     -28.069   2.077  13.202  1.00  0.00    +0.020 A 
ENDROOT
TORSDOF 0
ENDMDL
MODEL 5
REMARK VINA RESULT:    -7.329      8.371     10.506
REMARK INTER + INTRA:          -7.329
REMARK INTER:                  -7.329
REMARK INTRA:                   0.000
REMARK UNBOUND:                 0.000
REMARK SMILES CN1c2ccccc2S(=O)c2ccccc21
REMARK SMILES IDX 1 1 2 2 3 3 8 4 7 5 6 6 5 7 4 8 9 9 10 10 11 11 16 12 15 13
REMARK SMILES IDX 14 14 13 15 12 16
REMARK H PARENT
ROOT
ATOM      1  C   UNL     1     -25.617   3.774  11.450  1.00  0.00    +0.150 C 
ATOM      2  N   UNL     1     -25.707   2.318  11.346  1.00  0.00    -0.343 N 
ATOM      3  C   UNL     1     -26.816   1.674  11.948  1.00  0.00    +0.058 A 
ATOM      4  C   UNL     1     -27.110   0.331  11.636  1.00  0.00    +0.067 A 
ATOM      5  C   UNL     1     -28.168  -0.341  12.272  1.00  0.00    +0.020 A 
ATOM      6  C   UNL     1     -28.950   0.307  13.224  1.00  0.00    +0.001 A 
ATOM      7  C   UNL     1     -28.681   1.632  13.540  1.00  0.00    +0.002 A 
ATOM      8  C   UNL     1     -27.627   2.305  12.911  1.00  0.00    +0.027 A 
ATOM      9  S   UNL     1     -26.238  -0.522  10.312  1.00  0.00    +0.089 S 
ATOM     10  O   UNL     1     -26.096  -1.952  10.750  1.00  0.00    -0.249 OA
ATOM     11  C   UNL     1     -24.635   0.253  10.580  1.00  0.00    +0.067 A 
ATOM     12  C   UNL     1     -24.542   1.601  10.978  1.00  0.00    +0.058 A 
ATOM     13  C   UNL     1     -23.253   2.166  11.044  1.00  0.00    +0.027 A 
ATOM     14  C   UNL     1     -22.108   1.424  10.736  1.00  0.00    +0.002 A 
ATOM     15  C   UNL     1     -22.222   0.094  10.354  1.00  0.00    +0.001 A 
ATOM     16  C   UNL     1     -23.482  -0.489  10.273  1.00  0.00    +0.020 A 
ENDROOT
TORSDOF 0
ENDMDL
MODEL 6
REMARK VINA RESULT:    -7.191      7.922     10.502
REMARK INTER + INTRA:          -7.191
REMARK INTER:                  -7.191
REMARK INTRA:                   0.000
REMARK UNBOUND:                 0.000
REMARK SMILES CN1c2ccccc2S(=O)c2ccccc21
REMARK SMILES IDX 1 1 2 2 3 3 8 4 7 5 6 6 5 7 4 8 9 9 10 10 11 11 16 12 15 13
REMARK SMILES IDX 14 14 13 15 12 16
REMARK H PARENT
ROOT
ATOM      1  C   UNL     1     -34.774   6.220   7.686  1.00  0.00    +0.150 C 
ATOM      2  N   UNL     1     -35.054   5.034   8.495  1.00  0.00    -0.343 N 
ATOM      3  C   UNL     1     -36.313   4.949   9.140  1.00  0.00    +0.058 A 
ATOM      4  C   UNL     1     -36.750   3.723   9.681  1.00  0.00    +0.067 A 
ATOM      5  C   UNL     1     -37.967   3.637  10.379  1.00  0.00    +0.020 A 
ATOM      6  C   UNL     1     -38.768   4.762  10.549  1.00  0.00    +0.001 A 
ATOM      7  C   UNL     1     -38.359   5.978  10.016  1.00  0.00    +0.002 A 
ATOM      8  C   UNL     1     -37.147   6.069   9.323  1.00  0.00    +0.027 A 
ATOM      9  S   UNL     1     -35.840   2.201   9.375  1.00  0.00    +0.089 S 
ATOM     10  O   UNL     1     -35.961   1.375  10.624  1.00  0.00    -0.249 OA
ATOM     11  C   UNL     1     -34.193   2.929   9.404  1.00  0.00    +0.067 A 
ATOM     12  C   UNL     1     -33.964   4.218   8.885  1.00  0.00    +0.058 A 
ATOM     13  C   UNL     1     -32.628   4.664   8.831  1.00  0.00    +0.027 A 
ATOM     14  C   UNL     1     -31.569   3.867   9.279  1.00  0.00    +0.002 A 
ATOM     15  C   UNL     1     -31.818   2.602   9.794  1.00  0.00    +0.001 A 
ATOM     16  C   UNL     1     -33.126   2.133   9.853  1.00  0.00    +0.020 A 
ENDROOT
TORSDOF 0
ENDMDL
MODEL 7
REMARK VINA RESULT:    -6.921      8.546     10.085
REMARK INTER + INTRA:          -6.921
REMARK INTER:                  -6.921
REMARK INTRA:                   0.000
REMARK UNBOUND:                 0.000
REMARK SMILES CN1c2ccccc2S(=O)c2ccccc21
REMARK SMILES IDX 1 1 2 2 3 3 8 4 7 5 6 6 5 7 4 8 9 9 10 10 11 11 16 12 15 13
REMARK SMILES IDX 14 14 13 15 12 16
REMARK H PARENT
ROOT
ATOM      1  C   UNL     1     -26.165  -1.942  10.854  1.00  0.00    +0.150 C 
ATOM      2  N   UNL     1     -26.271  -0.489  10.988  1.00  0.00    -0.343 N 
ATOM      3  C   UNL     1     -27.552   0.102  10.856  1.00  0.00    +0.058 A 
ATOM      4  C   UNL     1     -27.762   1.436  11.260  1.00  0.00    +0.067 A 
ATOM      5  C   UNL     1     -29.010   2.056  11.076  1.00  0.00    +0.020 A 
ATOM      6  C   UNL     1     -30.066   1.364  10.492  1.00  0.00    +0.001 A 
ATOM      7  C   UNL     1     -29.882   0.046  10.094  1.00  0.00    +0.002 A 
ATOM      8  C   UNL     1     -28.641  -0.575  10.272  1.00  0.00    +0.027 A 
ATOM      9  S   UNL     1     -26.489   2.342  12.154  1.00  0.00    +0.089 S 
ATOM     10  O   UNL     1     -26.586   3.770  11.699  1.00  0.00    -0.249 OA
ATOM     11  C   UNL     1     -25.077   1.628  11.294  1.00  0.00    +0.067 A 
ATOM     12  C   UNL     1     -25.085   0.280  10.887  1.00  0.00    +0.058 A 
ATOM     13  C   UNL     1     -23.895  -0.234  10.333  1.00  0.00    +0.027 A 
ATOM     14  C   UNL     1     -22.752   0.558  10.185  1.00  0.00    +0.002 A 
ATOM     15  C   UNL     1     -22.768   1.888  10.585  1.00  0.00    +0.001 A 
ATOM     16  C   UNL     1     -23.927   2.420  11.142  1.00  0.00    +0.020 A 
ENDROOT
TORSDOF 0
ENDMDL
MODEL 8
REMARK VINA RESULT:    -6.581      5.973      7.949
REMARK INTER + INTRA:          -6.581
REMARK INTER:                  -6.581
REMARK INTRA:                   0.000
REMARK UNBOUND:                 0.000
REMARK SMILES CN1c2ccccc2S(=O)c2ccccc21
REMARK SMILES IDX 1 1 2 2 3 3 8 4 7 5 6 6 5 7 4 8 9 9 10 10 11 11 16 12 15 13
REMARK SMILES IDX 14 14 13 15 12 16
REMARK H PARENT
ROOT
ATOM      1  C   UNL     1     -34.775   3.613   5.520  1.00  0.00    +0.150 C 
ATOM      2  N   UNL     1     -34.238   4.276   6.708  1.00  0.00    -0.343 N 
ATOM      3  C   UNL     1     -34.812   3.962   7.965  1.00  0.00    +0.058 A 
ATOM      4  C   UNL     1     -34.157   4.335   9.156  1.00  0.00    +0.067 A 
ATOM      5  C   UNL     1     -34.744   4.087  10.408  1.00  0.00    +0.020 A 
ATOM      6  C   UNL     1     -35.985   3.466  10.499  1.00  0.00    +0.001 A 
ATOM      7  C   UNL     1     -36.643   3.083   9.337  1.00  0.00    +0.002 A 
ATOM      8  C   UNL     1     -36.064   3.329   8.088  1.00  0.00    +0.027 A 
ATOM      9  S   UNL     1     -32.488   5.009   9.120  1.00  0.00    +0.089 S 
ATOM     10  O   UNL     1     -32.417   6.025  10.225  1.00  0.00    -0.249 OA
ATOM     11  C   UNL     1     -32.666   5.936   7.587  1.00  0.00    +0.067 A 
ATOM     12  C   UNL     1     -33.441   5.433   6.524  1.00  0.00    +0.058 A 
ATOM     13  C   UNL     1     -33.428   6.158   5.316  1.00  0.00    +0.027 A 
ATOM     14  C   UNL     1     -32.682   7.334   5.173  1.00  0.00    +0.002 A 
ATOM     15  C   UNL     1     -31.931   7.817   6.236  1.00  0.00    +0.001 A 
ATOM     16  C   UNL     1     -31.920   7.118   7.438  1.00  0.00    +0.020 A 
ENDROOT
TORSDOF 0
ENDMDL
MODEL 9
REMARK VINA RESULT:    -6.121      8.642     10.281
REMARK INTER + INTRA:          -6.121
REMARK INTER:                  -6.121
REMARK INTRA:                   0.000
REMARK UNBOUND:                 0.000
REMARK SMILES CN1c2ccccc2S(=O)c2ccccc21
REMARK SMILES IDX 1 1 2 2 3 3 8 4 7 5 6 6 5 7 4 8 9 9 10 10 11 11 16 12 15 13
REMARK SMILES IDX 14 14 13 15 12 16
REMARK H PARENT
ROOT
ATOM      1  C   UNL     1     -28.091   2.434  10.255  1.00  0.00    +0.150 C 
ATOM      2  N   UNL     1     -28.949   1.407  10.844  1.00  0.00    -0.343 N 
ATOM      3  C   UNL     1     -28.367   0.157  11.169  1.00  0.00    +0.058 A 
ATOM      4  C   UNL     1     -29.058  -0.754  11.994  1.00  0.00    +0.067 A 
ATOM      5  C   UNL     1     -28.521  -2.023  12.273  1.00  0.00    +0.020 A 
ATOM      6  C   UNL     1     -27.295  -2.407  11.741  1.00  0.00    +0.001 A 
ATOM      7  C   UNL     1     -26.594  -1.521  10.932  1.00  0.00    +0.002 A 
ATOM      8  C   UNL     1     -27.125  -0.258  10.649  1.00  0.00    +0.027 A 
ATOM      9  S   UNL     1     -30.575  -0.272  12.834  1.00  0.00    +0.089 S 
ATOM     10  O   UNL     1     -31.449  -1.493  12.865  1.00  0.00    -0.249 OA
ATOM     11  C   UNL     1     -31.218   0.781  11.521  1.00  0.00    +0.067 A 
ATOM     12  C   UNL     1     -30.353   1.566  10.735  1.00  0.00    +0.058 A 
ATOM     13  C   UNL     1     -30.945   2.454   9.815  1.00  0.00    +0.027 A 
ATOM     14  C   UNL     1     -32.333   2.553   9.678  1.00  0.00    +0.002 A 
ATOM     15  C   UNL     1     -33.168   1.764  10.458  1.00  0.00    +0.001 A 
ATOM     16  C   UNL     1     -32.612   0.883  11.379  1.00  0.00    +0.020 A 
ENDROOT
TORSDOF 0
ENDMDL
