MODEL 1
REMARK VINA RESULT:    -8.743      0.000      0.000
REMARK INTER + INTRA:         -13.436
REMARK INTER:                 -12.320
REMARK INTRA:                  -1.115
REMARK UNBOUND:                -1.115
REMARK SMILES COc1ccccc1N[C@@H](c1ccccc1)c1oc(CO)cc(=O)c1O
REMARK SMILES IDX 10 1 9 2 8 4 3 5 4 6 7 7 5 8 6 9 2 10 1 11 11 12 12 13 16 14
REMARK SMILES IDX 13 15 15 16 14 17 17 18 25 19 18 20 23 21 19 22 24 23 22 24
REMARK SMILES IDX 26 25 20 27 21 28
REMARK H PARENT 9 3 26 26 21 29
ROOT
ATOM      1  C   UNL     1     -34.421   3.926   9.216  1.00  0.00    +0.181 C 
ENDROOT
BRANCH   1   2
ATOM      2  N   UNL     1     -35.778   3.375   9.172  1.00  0.00    -0.368 N 
ATOM      3  H   UNL     1     -35.838   2.497   9.696  1.00  0.00    +0.161 HD
BRANCH   2   4
ATOM      4  C   UNL     1     -36.879   4.187   9.510  1.00  0.00    +0.078 A 
ATOM      5  C   UNL     1     -37.951   3.621  10.243  1.00  0.00    +0.141 A 
ATOM      6  C   UNL     1     -39.074   4.395  10.558  1.00  0.00    +0.048 A 
ATOM      7  C   UNL     1     -36.990   5.513   9.073  1.00  0.00    +0.029 A 
ATOM      8  C   UNL     1     -39.150   5.723  10.135  1.00  0.00    +0.004 A 
ATOM      9  C   UNL     1     -38.114   6.280   9.391  1.00  0.00    +0.002 A 
BRANCH   5  10
ATOM     10  O   UNL     1     -37.770   2.310  10.620  1.00  0.00    -0.495 OA
ATOM     11  C   UNL     1     -38.831   1.691  11.334  1.00  0.00    +0.278 C 
ENDBRANCH   5  10
ENDBRANCH   2   4
ENDBRANCH   1   2
BRANCH   1  12
ATOM     12  C   UNL     1     -33.350   2.890   9.549  1.00  0.00    -0.018 A 
ATOM     13  C   UNL     1     -33.730   1.571   9.858  1.00  0.00    +0.006 A 
ATOM     14  C   UNL     1     -31.984   3.217   9.591  1.00  0.00    +0.006 A 
ATOM     15  C   UNL     1     -32.774   0.609  10.187  1.00  0.00    +0.000 A 
ATOM     16  C   UNL     1     -31.029   2.253   9.919  1.00  0.00    +0.000 A 
ATOM     17  C   UNL     1     -31.424   0.951  10.217  1.00  0.00    +0.000 A 
ENDBRANCH   1  12
BRANCH   1  18
ATOM     18  C   UNL     1     -34.091   4.646   7.910  1.00  0.00    +0.176 A 
ATOM     19  C   UNL     1     -34.309   4.170   6.671  1.00  0.00    +0.205 A 
ATOM     20  O   UNL     1     -33.525   5.903   8.127  1.00  0.00    -0.457 OA
ATOM     21  C   UNL     1     -33.943   5.013   5.506  1.00  0.00    +0.227 A 
ATOM     22  C   UNL     1     -33.171   6.702   7.052  1.00  0.00    +0.133 A 
ATOM     23  O   UNL     1     -34.132   4.606   4.363  1.00  0.00    -0.286 OA
ATOM     24  C   UNL     1     -33.350   6.330   5.778  1.00  0.00    +0.101 A 
BRANCH  19  25
ATOM     25  O   UNL     1     -34.840   2.921   6.404  1.00  0.00    -0.502 OA
ATOM     26  H   UNL     1     -35.198   2.608   7.264  1.00  0.00    +0.293 HD
ENDBRANCH  19  25
BRANCH  22  27
ATOM     27  C   UNL     1     -32.573   8.023   7.442  1.00  0.00    +0.231 C 
BRANCH  27  28
ATOM     28  O   UNL     1     -33.586   8.950   7.812  1.00  0.00    -0.388 OA
ATOM     29  H   UNL     1     -33.965   9.336   6.998  1.00  0.00    +0.211 HD
ENDBRANCH  27  28
ENDBRANCH  22  27
ENDBRANCH   1  18
TORSDOF 8
ENDMDL
MODEL 2
REMARK VINA RESULT:    -8.672      4.955      8.105
REMARK INTER + INTRA:         -13.336
REMARK INTER:                 -12.726
REMARK INTRA:                  -0.611
REMARK UNBOUND:                -1.115
REMARK SMILES COc1ccccc1N[C@@H](c1ccccc1)c1oc(CO)cc(=O)c1O
REMARK SMILES IDX 10 1 9 2 8 4 3 5 4 6 7 7 5 8 6 9 2 10 1 11 11 12 12 13 16 14
REMARK SMILES IDX 13 15 15 16 14 17 17 18 25 19 18 20 23 21 19 22 24 23 22 24
REMARK SMILES IDX 26 25 20 27 21 28
REMARK H PARENT 9 3 26 26 21 29
ROOT
ATOM      1  C   UNL     1     -29.519   8.262   6.725  1.00  0.00    +0.181 C 
ENDROOT
BRANCH   1   2
ATOM      2  N   UNL     1     -30.654   7.817   7.539  1.00  0.00    -0.368 N 
ATOM      3  H   UNL     1     -30.957   8.553   8.184  1.00  0.00    +0.161 HD
BRANCH   2   4
ATOM      4  C   UNL     1     -31.787   7.256   6.920  1.00  0.00    +0.078 A 
ATOM      5  C   UNL     1     -32.546   6.288   7.622  1.00  0.00    +0.141 A 
ATOM      6  C   UNL     1     -33.654   5.685   7.015  1.00  0.00    +0.048 A 
ATOM      7  C   UNL     1     -32.143   7.559   5.599  1.00  0.00    +0.029 A 
ATOM      8  C   UNL     1     -34.006   6.023   5.708  1.00  0.00    +0.004 A 
ATOM      9  C   UNL     1     -33.250   6.954   4.999  1.00  0.00    +0.002 A 
BRANCH   5  10
ATOM     10  O   UNL     1     -32.122   6.035   8.907  1.00  0.00    -0.495 OA
ATOM     11  C   UNL     1     -32.578   4.836   9.515  1.00  0.00    +0.278 C 
ENDBRANCH   5  10
ENDBRANCH   2   4
ENDBRANCH   1   2
BRANCH   1  12
ATOM     12  C   UNL     1     -29.380   9.780   6.645  1.00  0.00    -0.018 A 
ATOM     13  C   UNL     1     -30.291  10.599   7.337  1.00  0.00    +0.006 A 
ATOM     14  C   UNL     1     -28.385  10.398   5.869  1.00  0.00    +0.006 A 
ATOM     15  C   UNL     1     -30.201  11.990   7.264  1.00  0.00    +0.000 A 
ATOM     16  C   UNL     1     -28.296  11.789   5.798  1.00  0.00    +0.000 A 
ATOM     17  C   UNL     1     -29.203  12.584   6.495  1.00  0.00    +0.000 A 
ENDBRANCH   1  12
BRANCH   1  18
ATOM     18  C   UNL     1     -28.222   7.624   7.218  1.00  0.00    +0.176 A 
ATOM     19  C   UNL     1     -28.126   6.625   8.113  1.00  0.00    +0.205 A 
ATOM     20  O   UNL     1     -27.094   8.191   6.624  1.00  0.00    -0.457 OA
ATOM     21  C   UNL     1     -26.781   6.109   8.468  1.00  0.00    +0.227 A 
ATOM     22  C   UNL     1     -25.829   7.727   6.947  1.00  0.00    +0.133 A 
ATOM     23  O   UNL     1     -26.663   5.196   9.281  1.00  0.00    -0.286 OA
ATOM     24  C   UNL     1     -25.619   6.733   7.820  1.00  0.00    +0.101 A 
BRANCH  19  25
ATOM     25  O   UNL     1     -29.212   6.049   8.750  1.00  0.00    -0.502 OA
ATOM     26  H   UNL     1     -29.306   6.549   9.592  1.00  0.00    +0.293 HD
ENDBRANCH  19  25
BRANCH  22  27
ATOM     27  C   UNL     1     -24.716   8.435   6.231  1.00  0.00    +0.231 C 
BRANCH  27  28
ATOM     28  O   UNL     1     -25.008   9.818   6.079  1.00  0.00    -0.388 OA
ATOM     29  H   UNL     1     -24.689  10.108   5.202  1.00  0.00    +0.211 HD
ENDBRANCH  27  28
ENDBRANCH  22  27
ENDBRANCH   1  18
TORSDOF 8
ENDMDL
MODEL 3
REMARK VINA RESULT:    -7.918      5.464      9.071
REMARK INTER + INTRA:         -12.273
REMARK INTER:                 -11.227
REMARK INTRA:                  -1.046
REMARK UNBOUND:                -1.115
REMARK SMILES COc1ccccc1N[C@@H](c1ccccc1)c1oc(CO)cc(=O)c1O
REMARK SMILES IDX 10 1 9 2 8 4 3 5 4 6 7 7 5 8 6 9 2 10 1 11 11 12 12 13 16 14
REMARK SMILES IDX 13 15 15 16 14 17 17 18 25 19 18 20 23 21 19 22 24 23 22 24
REMARK SMILES IDX 26 25 20 27 21 28
REMARK H PARENT 9 3 26 26 21 29
ROOT
ATOM      1  C   UNL     1     -29.232   7.917   7.040  1.00  0.00    +0.181 C 
ENDROOT
BRANCH   1   2
ATOM      2  N   UNL     1     -28.487   7.642   8.271  1.00  0.00    -0.368 N 
ATOM      3  H   UNL     1     -29.111   7.621   9.084  1.00  0.00    +0.161 HD
BRANCH   2   4
ATOM      4  C   UNL     1     -27.616   6.537   8.335  1.00  0.00    +0.078 A 
ATOM      5  C   UNL     1     -26.278   6.690   7.894  1.00  0.00    +0.141 A 
ATOM      6  C   UNL     1     -25.402   5.598   7.910  1.00  0.00    +0.048 A 
ATOM      7  C   UNL     1     -28.048   5.268   8.740  1.00  0.00    +0.029 A 
ATOM      8  C   UNL     1     -25.848   4.349   8.343  1.00  0.00    +0.004 A 
ATOM      9  C   UNL     1     -27.169   4.183   8.754  1.00  0.00    +0.002 A 
BRANCH   5  10
ATOM     10  O   UNL     1     -25.938   7.964   7.498  1.00  0.00    -0.495 OA
ATOM     11  C   UNL     1     -24.637   8.146   6.957  1.00  0.00    +0.278 C 
ENDBRANCH   5  10
ENDBRANCH   2   4
ENDBRANCH   1   2
BRANCH   1  12
ATOM     12  C   UNL     1     -30.652   7.357   7.044  1.00  0.00    -0.018 A 
ATOM     13  C   UNL     1     -31.466   7.516   5.908  1.00  0.00    +0.006 A 
ATOM     14  C   UNL     1     -31.194   6.709   8.167  1.00  0.00    +0.006 A 
ATOM     15  C   UNL     1     -32.775   7.032   5.891  1.00  0.00    +0.000 A 
ATOM     16  C   UNL     1     -32.504   6.225   8.148  1.00  0.00    +0.000 A 
ATOM     17  C   UNL     1     -33.293   6.386   7.012  1.00  0.00    +0.000 A 
ENDBRANCH   1  12
BRANCH   1  18
ATOM     18  C   UNL     1     -29.241   9.415   6.742  1.00  0.00    +0.176 A 
ATOM     19  C   UNL     1     -28.308  10.085   6.041  1.00  0.00    +0.205 A 
ATOM     20  O   UNL     1     -30.359  10.055   7.280  1.00  0.00    -0.457 OA
ATOM     21  C   UNL     1     -28.483  11.543   5.830  1.00  0.00    +0.227 A 
ATOM     22  C   UNL     1     -30.535  11.417   7.097  1.00  0.00    +0.133 A 
ATOM     23  O   UNL     1     -27.648  12.180   5.192  1.00  0.00    -0.286 OA
ATOM     24  C   UNL     1     -29.673  12.179   6.411  1.00  0.00    +0.101 A 
BRANCH  19  25
ATOM     25  O   UNL     1     -27.170   9.501   5.513  1.00  0.00    -0.502 OA
ATOM     26  H   UNL     1     -27.051   8.670   6.023  1.00  0.00    +0.293 HD
ENDBRANCH  19  25
BRANCH  22  27
ATOM     27  C   UNL     1     -31.780  11.964   7.735  1.00  0.00    +0.231 C 
BRANCH  27  28
ATOM     28  O   UNL     1     -32.664  10.913   8.106  1.00  0.00    -0.388 OA
ATOM     29  H   UNL     1     -32.142  10.207   8.536  1.00  0.00    +0.211 HD
ENDBRANCH  27  28
ENDBRANCH  22  27
ENDBRANCH   1  18
TORSDOF 8
ENDMDL
MODEL 4
REMARK VINA RESULT:    -7.769      2.093      6.538
REMARK INTER + INTRA:         -12.064
REMARK INTER:                 -10.896
REMARK INTRA:                  -1.167
REMARK UNBOUND:                -1.115
REMARK SMILES COc1ccccc1N[C@@H](c1ccccc1)c1oc(CO)cc(=O)c1O
REMARK SMILES IDX 10 1 9 2 8 4 3 5 4 6 7 7 5 8 6 9 2 10 1 11 11 12 12 13 16 14
REMARK SMILES IDX 13 15 15 16 14 17 17 18 25 19 18 20 23 21 19 22 24 23 22 24
REMARK SMILES IDX 26 25 20 27 21 28
REMARK H PARENT 9 3 26 26 21 29
ROOT
ATOM      1  C   UNL     1     -33.938   4.791   9.505  1.00  0.00    +0.181 C 
ENDROOT
BRANCH   1   2
ATOM      2  N   UNL     1     -33.537   4.986   8.109  1.00  0.00    -0.368 N 
ATOM      3  H   UNL     1     -34.351   4.983   7.486  1.00  0.00    +0.161 HD
BRANCH   2   4
ATOM      4  C   UNL     1     -32.698   6.063   7.762  1.00  0.00    +0.078 A 
ATOM      5  C   UNL     1     -33.066   6.900   6.680  1.00  0.00    +0.141 A 
ATOM      6  C   UNL     1     -32.232   7.954   6.288  1.00  0.00    +0.048 A 
ATOM      7  C   UNL     1     -31.469   6.286   8.395  1.00  0.00    +0.029 A 
ATOM      8  C   UNL     1     -31.024   8.173   6.952  1.00  0.00    +0.004 A 
ATOM      9  C   UNL     1     -30.641   7.340   8.000  1.00  0.00    +0.002 A 
BRANCH   5  10
ATOM     10  O   UNL     1     -34.280   6.604   6.101  1.00  0.00    -0.495 OA
ATOM     11  C   UNL     1     -34.292   6.386   4.698  1.00  0.00    +0.278 C 
ENDBRANCH   5  10
ENDBRANCH   2   4
ENDBRANCH   1   2
BRANCH   1  12
ATOM     12  C   UNL     1     -35.333   5.323   9.822  1.00  0.00    -0.018 A 
ATOM     13  C   UNL     1     -35.659   5.677  11.144  1.00  0.00    +0.006 A 
ATOM     14  C   UNL     1     -36.327   5.442   8.836  1.00  0.00    +0.006 A 
ATOM     15  C   UNL     1     -36.933   6.147  11.466  1.00  0.00    +0.000 A 
ATOM     16  C   UNL     1     -37.601   5.913   9.160  1.00  0.00    +0.000 A 
ATOM     17  C   UNL     1     -37.903   6.264  10.473  1.00  0.00    +0.000 A 
ENDBRANCH   1  12
BRANCH   1  18
ATOM     18  C   UNL     1     -33.816   3.320   9.897  1.00  0.00    +0.176 A 
ATOM     19  C   UNL     1     -32.684   2.593   9.889  1.00  0.00    +0.205 A 
ATOM     20  O   UNL     1     -35.039   2.774  10.290  1.00  0.00    -0.457 OA
ATOM     21  C   UNL     1     -32.742   1.174  10.320  1.00  0.00    +0.227 A 
ATOM     22  C   UNL     1     -35.114   1.449  10.689  1.00  0.00    +0.133 A 
ATOM     23  O   UNL     1     -31.724   0.487  10.325  1.00  0.00    -0.286 OA
ATOM     24  C   UNL     1     -34.048   0.638  10.726  1.00  0.00    +0.101 A 
BRANCH  19  25
ATOM     25  O   UNL     1     -31.455   3.080   9.482  1.00  0.00    -0.502 OA
ATOM     26  H   UNL     1     -31.456   2.987   8.504  1.00  0.00    +0.293 HD
ENDBRANCH  19  25
BRANCH  22  27
ATOM     27  C   UNL     1     -36.494   1.004  11.080  1.00  0.00    +0.231 C 
BRANCH  27  28
ATOM     28  O   UNL     1     -37.453   2.013  10.789  1.00  0.00    -0.388 OA
ATOM     29  H   UNL     1     -38.197   1.603  10.306  1.00  0.00    +0.211 HD
ENDBRANCH  27  28
ENDBRANCH  22  27
ENDBRANCH   1  18
TORSDOF 8
ENDMDL
MODEL 5
REMARK VINA RESULT:    -7.739      4.755      8.674
REMARK INTER + INTRA:         -12.020
REMARK INTER:                 -11.230
REMARK INTRA:                  -0.791
REMARK UNBOUND:                -1.115
REMARK SMILES COc1ccccc1N[C@@H](c1ccccc1)c1oc(CO)cc(=O)c1O
REMARK SMILES IDX 10 1 9 2 8 4 3 5 4 6 7 7 5 8 6 9 2 10 1 11 11 12 12 13 16 14
REMARK SMILES IDX 13 15 15 16 14 17 17 18 25 19 18 20 23 21 19 22 24 23 22 24
REMARK SMILES IDX 26 25 20 27 21 28
REMARK H PARENT 9 3 26 26 21 29
ROOT
ATOM      1  C   UNL     1     -29.666   7.358   8.087  1.00  0.00    +0.181 C 
ENDROOT
BRANCH   1   2
ATOM      2  N   UNL     1     -29.417   8.134   6.869  1.00  0.00    -0.368 N 
ATOM      3  H   UNL     1     -29.865   7.700   6.056  1.00  0.00    +0.161 HD
BRANCH   2   4
ATOM      4  C   UNL     1     -29.678   9.518   6.851  1.00  0.00    +0.078 A 
ATOM      5  C   UNL     1     -28.720  10.392   6.280  1.00  0.00    +0.141 A 
ATOM      6  C   UNL     1     -28.936  11.775   6.285  1.00  0.00    +0.048 A 
ATOM      7  C   UNL     1     -30.815  10.071   7.454  1.00  0.00    +0.029 A 
ATOM      8  C   UNL     1     -30.090  12.301   6.868  1.00  0.00    +0.004 A 
ATOM      9  C   UNL     1     -31.025  11.452   7.455  1.00  0.00    +0.002 A 
BRANCH   5  10
ATOM     10  O   UNL     1     -27.625   9.771   5.723  1.00  0.00    -0.495 OA
ATOM     11  C   UNL     1     -26.482  10.576   5.475  1.00  0.00    +0.278 C 
ENDBRANCH   5  10
ENDBRANCH   2   4
ENDBRANCH   1   2
BRANCH   1  12
ATOM     12  C   UNL     1     -31.008   6.630   8.086  1.00  0.00    -0.018 A 
ATOM     13  C   UNL     1     -31.827   6.683   6.943  1.00  0.00    +0.006 A 
ATOM     14  C   UNL     1     -31.476   5.928   9.209  1.00  0.00    +0.006 A 
ATOM     15  C   UNL     1     -33.068   6.044   6.922  1.00  0.00    +0.000 A 
ATOM     16  C   UNL     1     -32.717   5.289   9.186  1.00  0.00    +0.000 A 
ATOM     17  C   UNL     1     -33.512   5.347   8.043  1.00  0.00    +0.000 A 
ENDBRANCH   1  12
BRANCH   1  18
ATOM     18  C   UNL     1     -28.520   6.382   8.345  1.00  0.00    +0.176 A 
ATOM     19  C   UNL     1     -27.214   6.626   8.130  1.00  0.00    +0.205 A 
ATOM     20  O   UNL     1     -28.967   5.162   8.854  1.00  0.00    -0.457 OA
ATOM     21  C   UNL     1     -26.227   5.567   8.453  1.00  0.00    +0.227 A 
ATOM     22  C   UNL     1     -28.060   4.160   9.156  1.00  0.00    +0.133 A 
ATOM     23  O   UNL     1     -25.028   5.762   8.270  1.00  0.00    -0.286 OA
ATOM     24  C   UNL     1     -26.738   4.298   8.988  1.00  0.00    +0.101 A 
BRANCH  19  25
ATOM     25  O   UNL     1     -26.724   7.807   7.600  1.00  0.00    -0.502 OA
ATOM     26  H   UNL     1     -25.747   7.701   7.606  1.00  0.00    +0.293 HD
ENDBRANCH  19  25
BRANCH  22  27
ATOM     27  C   UNL     1     -28.689   2.906   9.692  1.00  0.00    +0.231 C 
BRANCH  27  28
ATOM     28  O   UNL     1     -30.086   2.884   9.422  1.00  0.00    -0.388 OA
ATOM     29  H   UNL     1     -30.308   3.663   8.876  1.00  0.00    +0.211 HD
ENDBRANCH  27  28
ENDBRANCH  22  27
ENDBRANCH   1  18
TORSDOF 8
ENDMDL
MODEL 6
REMARK VINA RESULT:    -7.555      5.200      8.726
REMARK INTER + INTRA:         -11.762
REMARK INTER:                 -11.051
REMARK INTRA:                  -0.710
REMARK UNBOUND:                -1.115
REMARK SMILES COc1ccccc1N[C@@H](c1ccccc1)c1oc(CO)cc(=O)c1O
REMARK SMILES IDX 10 1 9 2 8 4 3 5 4 6 7 7 5 8 6 9 2 10 1 11 11 12 12 13 16 14
REMARK SMILES IDX 13 15 15 16 14 17 17 18 25 19 18 20 23 21 19 22 24 23 22 24
REMARK SMILES IDX 26 25 20 27 21 28
REMARK H PARENT 9 3 26 26 21 29
ROOT
ATOM      1  C   UNL     1     -29.415   8.003   6.880  1.00  0.00    +0.181 C 
ENDROOT
BRANCH   1   2
ATOM      2  N   UNL     1     -28.599   7.647   8.044  1.00  0.00    -0.368 N 
ATOM      3  H   UNL     1     -29.159   7.164   8.754  1.00  0.00    +0.161 HD
BRANCH   2   4
ATOM      4  C   UNL     1     -27.386   6.954   7.869  1.00  0.00    +0.078 A 
ATOM      5  C   UNL     1     -27.276   5.627   8.352  1.00  0.00    +0.141 A 
ATOM      6  C   UNL     1     -26.068   4.929   8.226  1.00  0.00    +0.048 A 
ATOM      7  C   UNL     1     -26.254   7.561   7.309  1.00  0.00    +0.029 A 
ATOM      8  C   UNL     1     -24.962   5.546   7.640  1.00  0.00    +0.004 A 
ATOM      9  C   UNL     1     -25.052   6.859   7.186  1.00  0.00    +0.002 A 
BRANCH   5  10
ATOM     10  O   UNL     1     -28.427   5.110   8.902  1.00  0.00    -0.495 OA
ATOM     11  C   UNL     1     -28.434   3.721   9.198  1.00  0.00    +0.278 C 
ENDBRANCH   5  10
ENDBRANCH   2   4
ENDBRANCH   1   2
BRANCH   1  12
ATOM     12  C   UNL     1     -30.832   7.436   6.928  1.00  0.00    -0.018 A 
ATOM     13  C   UNL     1     -31.291   6.810   8.101  1.00  0.00    +0.006 A 
ATOM     14  C   UNL     1     -31.693   7.488   5.820  1.00  0.00    +0.006 A 
ATOM     15  C   UNL     1     -32.574   6.265   8.166  1.00  0.00    +0.000 A 
ATOM     16  C   UNL     1     -32.977   6.943   5.887  1.00  0.00    +0.000 A 
ATOM     17  C   UNL     1     -33.416   6.332   7.059  1.00  0.00    +0.000 A 
ENDBRANCH   1  12
BRANCH   1  18
ATOM     18  C   UNL     1     -29.442   9.517   6.686  1.00  0.00    +0.176 A 
ATOM     19  C   UNL     1     -28.482  10.254   6.099  1.00  0.00    +0.205 A 
ATOM     20  O   UNL     1     -30.610  10.094   7.189  1.00  0.00    -0.457 OA
ATOM     21  C   UNL     1     -28.679  11.719   5.978  1.00  0.00    +0.227 A 
ATOM     22  C   UNL     1     -30.808  11.462   7.089  1.00  0.00    +0.133 A 
ATOM     23  O   UNL     1     -27.820  12.417   5.444  1.00  0.00    -0.286 OA
ATOM     24  C   UNL     1     -29.921  12.287   6.518  1.00  0.00    +0.101 A 
BRANCH  19  25
ATOM     25  O   UNL     1     -27.296   9.733   5.612  1.00  0.00    -0.502 OA
ATOM     26  H   UNL     1     -27.567   9.005   5.011  1.00  0.00    +0.293 HD
ENDBRANCH  19  25
BRANCH  22  27
ATOM     27  C   UNL     1     -32.107  11.935   7.675  1.00  0.00    +0.231 C 
BRANCH  27  28
ATOM     28  O   UNL     1     -32.865  10.843   8.180  1.00  0.00    -0.388 OA
ATOM     29  H   UNL     1     -32.367  10.018   8.015  1.00  0.00    +0.211 HD
ENDBRANCH  27  28
ENDBRANCH  22  27
ENDBRANCH   1  18
TORSDOF 8
ENDMDL
MODEL 7
REMARK VINA RESULT:    -7.053      5.101      8.993
REMARK INTER + INTRA:         -11.055
REMARK INTER:                 -11.187
REMARK INTRA:                   0.132
REMARK UNBOUND:                -1.115
REMARK SMILES COc1ccccc1N[C@@H](c1ccccc1)c1oc(CO)cc(=O)c1O
REMARK SMILES IDX 10 1 9 2 8 4 3 5 4 6 7 7 5 8 6 9 2 10 1 11 11 12 12 13 16 14
REMARK SMILES IDX 13 15 15 16 14 17 17 18 25 19 18 20 23 21 19 22 24 23 22 24
REMARK SMILES IDX 26 25 20 27 21 28
REMARK H PARENT 9 3 26 26 21 29
ROOT
ATOM      1  C   UNL     1     -28.797   8.283   6.913  1.00  0.00    +0.181 C 
ENDROOT
BRANCH   1   2
ATOM      2  N   UNL     1     -28.701   9.640   7.458  1.00  0.00    -0.368 N 
ATOM      3  H   UNL     1     -28.165   9.651   8.332  1.00  0.00    +0.161 HD
BRANCH   2   4
ATOM      4  C   UNL     1     -28.262  10.699   6.639  1.00  0.00    +0.078 A 
ATOM      5  C   UNL     1     -29.184  11.708   6.267  1.00  0.00    +0.141 A 
ATOM      6  C   UNL     1     -28.784  12.750   5.422  1.00  0.00    +0.048 A 
ATOM      7  C   UNL     1     -26.966  10.744   6.109  1.00  0.00    +0.029 A 
ATOM      8  C   UNL     1     -27.479  12.789   4.928  1.00  0.00    +0.004 A 
ATOM      9  C   UNL     1     -26.573  11.787   5.267  1.00  0.00    +0.002 A 
BRANCH   5  10
ATOM     10  O   UNL     1     -30.439  11.582   6.817  1.00  0.00    -0.495 OA
ATOM     11  C   UNL     1     -30.655  12.191   8.082  1.00  0.00    +0.278 C 
ENDBRANCH   5  10
ENDBRANCH   2   4
ENDBRANCH   1   2
BRANCH   1  12
ATOM     12  C   UNL     1     -27.635   7.378   7.314  1.00  0.00    -0.018 A 
ATOM     13  C   UNL     1     -26.452   7.387   6.553  1.00  0.00    +0.006 A 
ATOM     14  C   UNL     1     -27.716   6.502   8.409  1.00  0.00    +0.006 A 
ATOM     15  C   UNL     1     -25.381   6.555   6.884  1.00  0.00    +0.000 A 
ATOM     16  C   UNL     1     -26.644   5.670   8.739  1.00  0.00    +0.000 A 
ATOM     17  C   UNL     1     -25.478   5.697   7.978  1.00  0.00    +0.000 A 
ENDBRANCH   1  12
BRANCH   1  18
ATOM     18  C   UNL     1     -30.134   7.648   7.288  1.00  0.00    +0.176 A 
ATOM     19  C   UNL     1     -31.348   8.086   6.910  1.00  0.00    +0.205 A 
ATOM     20  O   UNL     1     -29.976   6.515   8.088  1.00  0.00    -0.457 OA
ATOM     21  C   UNL     1     -32.549   7.335   7.352  1.00  0.00    +0.227 A 
ATOM     22  C   UNL     1     -31.086   5.804   8.515  1.00  0.00    +0.133 A 
ATOM     23  O   UNL     1     -33.671   7.710   7.021  1.00  0.00    -0.286 OA
ATOM     24  C   UNL     1     -32.340   6.148   8.192  1.00  0.00    +0.101 A 
BRANCH  19  25
ATOM     25  O   UNL     1     -31.558   9.218   6.143  1.00  0.00    -0.502 OA
ATOM     26  H   UNL     1     -30.658   9.537   5.909  1.00  0.00    +0.293 HD
ENDBRANCH  19  25
BRANCH  22  27
ATOM     27  C   UNL     1     -30.759   4.614   9.369  1.00  0.00    +0.231 C 
BRANCH  27  28
ATOM     28  O   UNL     1     -29.652   3.896   8.837  1.00  0.00    -0.388 OA
ATOM     29  H   UNL     1     -29.970   3.030   8.515  1.00  0.00    +0.211 HD
ENDBRANCH  27  28
ENDBRANCH  22  27
ENDBRANCH   1  18
TORSDOF 8
ENDMDL
MODEL 8
REMARK VINA RESULT:    -6.874      1.974      4.515
REMARK INTER + INTRA:         -10.802
REMARK INTER:                 -10.487
REMARK INTRA:                  -0.315
REMARK UNBOUND:                -1.115
REMARK SMILES COc1ccccc1N[C@@H](c1ccccc1)c1oc(CO)cc(=O)c1O
REMARK SMILES IDX 10 1 9 2 8 4 3 5 4 6 7 7 5 8 6 9 2 10 1 11 11 12 12 13 16 14
REMARK SMILES IDX 13 15 15 16 14 17 17 18 25 19 18 20 23 21 19 22 24 23 22 24
REMARK SMILES IDX 26 25 20 27 21 28
REMARK H PARENT 9 3 26 26 21 29
ROOT
ATOM      1  C   UNL     1     -35.186   4.718   7.630  1.00  0.00    +0.181 C 
ENDROOT
BRANCH   1   2
ATOM      2  N   UNL     1     -34.801   3.306   7.683  1.00  0.00    -0.368 N 
ATOM      3  H   UNL     1     -33.833   3.174   7.372  1.00  0.00    +0.161 HD
BRANCH   2   4
ATOM      4  C   UNL     1     -35.007   2.563   8.862  1.00  0.00    +0.078 A 
ATOM      5  C   UNL     1     -33.883   2.100   9.589  1.00  0.00    +0.141 A 
ATOM      6  C   UNL     1     -34.060   1.326  10.742  1.00  0.00    +0.048 A 
ATOM      7  C   UNL     1     -36.287   2.192   9.295  1.00  0.00    +0.029 A 
ATOM      8  C   UNL     1     -35.345   0.992  11.170  1.00  0.00    +0.004 A 
ATOM      9  C   UNL     1     -36.456   1.420  10.447  1.00  0.00    +0.002 A 
BRANCH   5  10
ATOM     10  O   UNL     1     -32.663   2.495   9.088  1.00  0.00    -0.495 OA
ATOM     11  C   UNL     1     -31.507   2.085   9.805  1.00  0.00    +0.278 C 
ENDBRANCH   5  10
ENDBRANCH   2   4
ENDBRANCH   1   2
BRANCH   1  12
ATOM     12  C   UNL     1     -35.879   5.212   8.898  1.00  0.00    -0.018 A 
ATOM     13  C   UNL     1     -37.219   5.636   8.838  1.00  0.00    +0.006 A 
ATOM     14  C   UNL     1     -35.210   5.291  10.131  1.00  0.00    +0.006 A 
ATOM     15  C   UNL     1     -37.871   6.112   9.977  1.00  0.00    +0.000 A 
ATOM     16  C   UNL     1     -35.864   5.766  11.269  1.00  0.00    +0.000 A 
ATOM     17  C   UNL     1     -37.192   6.176  11.192  1.00  0.00    +0.000 A 
ENDBRANCH   1  12
BRANCH   1  18
ATOM     18  C   UNL     1     -33.979   5.592   7.297  1.00  0.00    +0.176 A 
ATOM     19  C   UNL     1     -33.887   6.447   6.263  1.00  0.00    +0.205 A 
ATOM     20  O   UNL     1     -32.934   5.421   8.206  1.00  0.00    -0.457 OA
ATOM     21  C   UNL     1     -32.641   7.235   6.095  1.00  0.00    +0.227 A 
ATOM     22  C   UNL     1     -31.761   6.144   8.062  1.00  0.00    +0.133 A 
ATOM     23  O   UNL     1     -32.530   8.026   5.162  1.00  0.00    -0.286 OA
ATOM     24  C   UNL     1     -31.566   7.027   7.074  1.00  0.00    +0.101 A 
BRANCH  19  25
ATOM     25  O   UNL     1     -34.883   6.631   5.319  1.00  0.00    -0.502 OA
ATOM     26  H   UNL     1     -34.505   6.282   4.481  1.00  0.00    +0.293 HD
ENDBRANCH  19  25
BRANCH  22  27
ATOM     27  C   UNL     1     -30.730   5.852   9.113  1.00  0.00    +0.231 C 
BRANCH  27  28
ATOM     28  O   UNL     1     -29.445   6.308   8.705  1.00  0.00    -0.388 OA
ATOM     29  H   UNL     1     -28.885   6.409   9.500  1.00  0.00    +0.211 HD
ENDBRANCH  27  28
ENDBRANCH  22  27
ENDBRANCH   1  18
TORSDOF 8
ENDMDL
MODEL 9
REMARK VINA RESULT:    -6.812      5.007      8.740
REMARK INTER + INTRA:         -10.714
REMARK INTER:                 -11.397
REMARK INTRA:                   0.683
REMARK UNBOUND:                -1.115
REMARK SMILES COc1ccccc1N[C@@H](c1ccccc1)c1oc(CO)cc(=O)c1O
REMARK SMILES IDX 10 1 9 2 8 4 3 5 4 6 7 7 5 8 6 9 2 10 1 11 11 12 12 13 16 14
REMARK SMILES IDX 13 15 15 16 14 17 17 18 25 19 18 20 23 21 19 22 24 23 22 24
REMARK SMILES IDX 26 25 20 27 21 28
REMARK H PARENT 9 3 26 26 21 29
ROOT
ATOM      1  C   UNL     1     -29.452   7.807   7.714  1.00  0.00    +0.181 C 
ENDROOT
BRANCH   1   2
ATOM      2  N   UNL     1     -29.369   8.423   6.387  1.00  0.00    -0.368 N 
ATOM      3  H   UNL     1     -30.159   8.142   5.798  1.00  0.00    +0.161 HD
BRANCH   2   4
ATOM      4  C   UNL     1     -29.181   9.814   6.267  1.00  0.00    +0.078 A 
ATOM      5  C   UNL     1     -30.273  10.680   6.521  1.00  0.00    +0.141 A 
ATOM      6  C   UNL     1     -30.124  12.064   6.370  1.00  0.00    +0.048 A 
ATOM      7  C   UNL     1     -27.974  10.367   5.822  1.00  0.00    +0.029 A 
ATOM      8  C   UNL     1     -28.903  12.595   5.951  1.00  0.00    +0.004 A 
ATOM      9  C   UNL     1     -27.832  11.749   5.674  1.00  0.00    +0.002 A 
BRANCH   5  10
ATOM     10  O   UNL     1     -31.427  10.056   6.938  1.00  0.00    -0.495 OA
ATOM     11  C   UNL     1     -32.029  10.542   8.129  1.00  0.00    +0.278 C 
ENDBRANCH   5  10
ENDBRANCH   2   4
ENDBRANCH   1   2
BRANCH   1  12
ATOM     12  C   UNL     1     -30.723   6.988   7.931  1.00  0.00    -0.018 A 
ATOM     13  C   UNL     1     -31.713   6.964   6.932  1.00  0.00    +0.006 A 
ATOM     14  C   UNL     1     -30.956   6.275   9.119  1.00  0.00    +0.006 A 
ATOM     15  C   UNL     1     -32.893   6.240   7.112  1.00  0.00    +0.000 A 
ATOM     16  C   UNL     1     -32.137   5.552   9.297  1.00  0.00    +0.000 A 
ATOM     17  C   UNL     1     -33.104   5.535   8.295  1.00  0.00    +0.000 A 
ENDBRANCH   1  12
BRANCH   1  18
ATOM     18  C   UNL     1     -28.210   6.965   7.994  1.00  0.00    +0.176 A 
ATOM     19  C   UNL     1     -26.935   7.369   7.846  1.00  0.00    +0.205 A 
ATOM     20  O   UNL     1     -28.529   5.684   8.445  1.00  0.00    -0.457 OA
ATOM     21  C   UNL     1     -25.842   6.423   8.182  1.00  0.00    +0.227 A 
ATOM     22  C   UNL     1     -27.522   4.785   8.758  1.00  0.00    +0.133 A 
ATOM     23  O   UNL     1     -24.669   6.764   8.059  1.00  0.00    -0.286 OA
ATOM     24  C   UNL     1     -26.220   5.084   8.654  1.00  0.00    +0.101 A 
BRANCH  19  25
ATOM     25  O   UNL     1     -26.568   8.617   7.375  1.00  0.00    -0.502 OA
ATOM     26  H   UNL     1     -26.817   9.242   8.092  1.00  0.00    +0.293 HD
ENDBRANCH  19  25
BRANCH  22  27
ATOM     27  C   UNL     1     -28.018   3.448   9.227  1.00  0.00    +0.231 C 
BRANCH  27  28
ATOM     28  O   UNL     1     -27.042   2.437   9.004  1.00  0.00    -0.388 OA
ATOM     29  H   UNL     1     -27.174   2.072   8.108  1.00  0.00    +0.211 HD
ENDBRANCH  27  28
ENDBRANCH  22  27
ENDBRANCH   1  18
TORSDOF 8
ENDMDL
