REMARK SMILES CC(=O)OC[C@@H]1O[C@H](Sc2cccc3ccccc23)[C@H](OC(C)=O)[C@@H](OC(C)=O)[C@@H]1OC(C)=O
REMARK SMILES IDX 6 1 7 2 8 3 20 4 25 5 30 6 5 7 4 8 2 9 3 10 1 11 31 12 32 13
REMARK SMILES IDX 34 14 33 15 9 16 10 17 19 18 11 19 18 20 14 21 12 22 17 23
REMARK SMILES IDX 15 24 13 25 16 26 26 27 27 28 29 29 28 30 21 31 22 32 24 33
REMARK SMILES IDX 23 34
REMARK H PARENT
ROOT
ATOM      1  C   UNL     1      -1.319   0.576   0.347  1.00  0.00    +0.202 C 
ATOM      2  O   UNL     1      -0.374   0.446  -0.732  1.00  0.00    -0.352 OA
ATOM      3  C   UNL     1       0.382  -0.765  -0.632  1.00  0.00    +0.226 C 
ATOM      4  C   UNL     1      -0.541  -1.994  -0.787  1.00  0.00    +0.260 C 
ATOM      5  C   UNL     1      -1.671  -1.919   0.266  1.00  0.00    +0.264 C 
ATOM      6  C   UNL     1      -2.378  -0.542   0.257  1.00  0.00    +0.253 C 
ENDROOT
BRANCH   1   7
ATOM      7  C   UNL     1      -1.914   1.989   0.287  1.00  0.00    +0.269 C 
BRANCH   7   8
ATOM      8  O   UNL     1      -0.898   2.994   0.502  1.00  0.00    -0.463 OA
BRANCH   8   9
ATOM      9  C   UNL     1      -0.479   3.144   1.786  1.00  0.00    +0.302 C 
ATOM     10  O   UNL     1      -0.881   2.495   2.743  1.00  0.00    -0.253 OA
ATOM     11  C   UNL     1       0.567   4.212   1.867  1.00  0.00    +0.139 C 
ENDBRANCH   8   9
ENDBRANCH   7   8
ENDBRANCH   1   7
BRANCH   6  12
ATOM     12  O   UNL     1      -3.139  -0.458  -0.970  1.00  0.00    -0.455 OA
BRANCH  12  13
ATOM     13  C   UNL     1      -4.337   0.180  -0.918  1.00  0.00    +0.303 C 
ATOM     14  O   UNL     1      -4.789   0.757   0.059  1.00  0.00    -0.253 OA
ATOM     15  C   UNL     1      -5.017   0.102  -2.250  1.00  0.00    +0.139 C 
ENDBRANCH  12  13
ENDBRANCH   6  12
BRANCH   3  16
ATOM     16  S   UNL     1       1.723  -0.782  -1.885  1.00  0.00    -0.090 SA
BRANCH  16  17
ATOM     17  C   UNL     1       2.691   0.598  -1.256  1.00  0.00    +0.018 A 
ATOM     18  C   UNL     1       3.726   0.444  -0.292  1.00  0.00    -0.005 A 
ATOM     19  C   UNL     1       2.377   1.867  -1.765  1.00  0.00    +0.016 A 
ATOM     20  C   UNL     1       4.124  -0.798   0.262  1.00  0.00    +0.010 A 
ATOM     21  C   UNL     1       4.411   1.606   0.149  1.00  0.00    -0.017 A 
ATOM     22  C   UNL     1       3.064   2.994  -1.327  1.00  0.00    +0.002 A 
ATOM     23  C   UNL     1       5.142  -0.887   1.214  1.00  0.00    +0.001 A 
ATOM     24  C   UNL     1       5.432   1.499   1.108  1.00  0.00    +0.009 A 
ATOM     25  C   UNL     1       4.072   2.862  -0.375  1.00  0.00    +0.009 A 
ATOM     26  C   UNL     1       5.794   0.263   1.639  1.00  0.00    +0.001 A 
ENDBRANCH  16  17
ENDBRANCH   3  16
BRANCH   5  27
ATOM     27  O   UNL     1      -1.075  -2.173   1.562  1.00  0.00    -0.454 OA
BRANCH  27  28
ATOM     28  C   UNL     1      -1.925  -2.631   2.524  1.00  0.00    +0.303 C 
ATOM     29  O   UNL     1      -3.125  -2.802   2.377  1.00  0.00    -0.253 OA
ATOM     30  C   UNL     1      -1.178  -2.871   3.799  1.00  0.00    +0.139 C 
ENDBRANCH  27  28
ENDBRANCH   5  27
BRANCH   4  31
ATOM     31  O   UNL     1      -1.103  -2.018  -2.120  1.00  0.00    -0.455 OA
BRANCH  31  32
ATOM     32  C   UNL     1      -1.515  -3.232  -2.567  1.00  0.00    +0.303 C 
ATOM     33  O   UNL     1      -1.466  -4.271  -1.926  1.00  0.00    -0.253 OA
ATOM     34  C   UNL     1      -2.042  -3.115  -3.963  1.00  0.00    +0.139 C 
ENDBRANCH  31  32
ENDBRANCH   4  31
TORSDOF 11
