MODEL 1
REMARK VINA RESULT:    -9.051      0.000      0.000
REMARK INTER + INTRA:         -12.645
REMARK INTER:                 -12.225
REMARK INTRA:                  -0.419
REMARK UNBOUND:                -0.419
REMARK SMILES CCCCNc1nc(C)nc2c1cnn2-c1ccc([N+](=O)[O-])cc1
REMARK SMILES IDX 5 1 4 3 3 4 2 5 1 6 6 7 12 8 7 9 13 10 11 11 8 12 14 13
REMARK SMILES IDX 15 14 10 15 9 16 16 17 17 18 24 19 18 20 23 21 19 22 20 23
REMARK SMILES IDX 21 24 22 25
REMARK H PARENT 5 2
ROOT
ATOM      1  N   UNL     1     -27.447   0.817  11.939  1.00  0.00    -0.369 N 
ATOM      2  H   UNL     1     -27.982   0.259  11.282  1.00  0.00    +0.162 HD
ENDROOT
BRANCH   1   3
ATOM      3  C   UNL     1     -28.196   1.275  13.102  1.00  0.00    +0.114 C 
BRANCH   3   4
ATOM      4  C   UNL     1     -29.687   0.977  12.921  1.00  0.00    +0.021 C 
BRANCH   4   5
ATOM      5  C   UNL     1     -30.374   0.593  14.235  1.00  0.00    -0.002 C 
ATOM      6  C   UNL     1     -29.553   1.028  15.438  1.00  0.00    +0.004 C 
ENDBRANCH   4   5
ENDBRANCH   3   4
ENDBRANCH   1   3
BRANCH   1   7
ATOM      7  C   UNL     1     -26.657   1.778  11.307  1.00  0.00    +0.140 A 
ATOM      8  C   UNL     1     -27.199   2.739  10.446  1.00  0.00    +0.082 A 
ATOM      9  N   UNL     1     -25.317   1.798  11.499  1.00  0.00    -0.216 NA
ATOM     10  C   UNL     1     -28.467   3.077   9.949  1.00  0.00    +0.150 A 
ATOM     11  C   UNL     1     -26.337   3.651   9.860  1.00  0.00    +0.168 A 
ATOM     12  C   UNL     1     -24.563   2.732  10.883  1.00  0.00    +0.130 A 
ATOM     13  N   UNL     1     -28.444   4.127   9.129  1.00  0.00    -0.174 NA
ATOM     14  N   UNL     1     -27.123   4.482   9.062  1.00  0.00    -0.215 N 
ATOM     15  N   UNL     1     -25.003   3.689  10.048  1.00  0.00    -0.213 NA
ATOM     16  C   UNL     1     -23.086   2.667  11.122  1.00  0.00    +0.090 C 
BRANCH  14  17
ATOM     17  C   UNL     1     -26.737   5.589   8.241  1.00  0.00    +0.068 A 
ATOM     18  C   UNL     1     -27.640   6.654   8.060  1.00  0.00    +0.035 A 
ATOM     19  C   UNL     1     -25.486   5.646   7.610  1.00  0.00    +0.035 A 
ATOM     20  C   UNL     1     -27.302   7.754   7.266  1.00  0.00    +0.088 A 
ATOM     21  C   UNL     1     -25.142   6.746   6.812  1.00  0.00    +0.088 A 
ATOM     22  C   UNL     1     -26.050   7.795   6.643  1.00  0.00    +0.269 A 
BRANCH  22  23
ATOM     23  N   UNL     1     -25.688   8.948   5.808  1.00  0.00    +0.062 N 
ATOM     24  O   UNL     1     -24.907   9.783   6.288  1.00  0.00    -0.258 OA
ATOM     25  O   UNL     1     -26.184   9.019   4.675  1.00  0.00    -0.258 OA
ENDBRANCH  22  23
ENDBRANCH  14  17
ENDBRANCH   1   7
TORSDOF 6
ENDMDL
MODEL 2
REMARK VINA RESULT:    -8.920      3.925      8.790
REMARK INTER + INTRA:         -12.467
REMARK INTER:                 -11.937
REMARK INTRA:                  -0.531
REMARK UNBOUND:                -0.419
REMARK SMILES CCCCNc1nc(C)nc2c1cnn2-c1ccc([N+](=O)[O-])cc1
REMARK SMILES IDX 5 1 4 3 3 4 2 5 1 6 6 7 12 8 7 9 13 10 11 11 8 12 14 13
REMARK SMILES IDX 15 14 10 15 9 16 16 17 17 18 24 19 18 20 23 21 19 22 20 23
REMARK SMILES IDX 21 24 22 25
REMARK H PARENT 5 2
ROOT
ATOM      1  N   UNL     1     -26.312   9.821   5.141  1.00  0.00    -0.369 N 
ATOM      2  H   UNL     1     -25.472   9.440   4.719  1.00  0.00    +0.162 HD
ENDROOT
BRANCH   1   3
ATOM      3  C   UNL     1     -26.200  11.203   5.588  1.00  0.00    +0.114 C 
BRANCH   3   4
ATOM      4  C   UNL     1     -26.993  12.125   4.656  1.00  0.00    +0.021 C 
BRANCH   4   5
ATOM      5  C   UNL     1     -27.952  13.046   5.416  1.00  0.00    -0.002 C 
ATOM      6  C   UNL     1     -29.220  12.313   5.823  1.00  0.00    +0.004 C 
ENDBRANCH   4   5
ENDBRANCH   3   4
ENDBRANCH   1   3
BRANCH   1   7
ATOM      7  C   UNL     1     -26.906   8.936   6.042  1.00  0.00    +0.140 A 
ATOM      8  C   UNL     1     -26.192   7.894   6.645  1.00  0.00    +0.082 A 
ATOM      9  N   UNL     1     -28.219   9.053   6.353  1.00  0.00    -0.216 NA
ATOM     10  C   UNL     1     -24.882   7.392   6.612  1.00  0.00    +0.150 A 
ATOM     11  C   UNL     1     -26.866   7.063   7.524  1.00  0.00    +0.168 A 
ATOM     12  C   UNL     1     -28.782   8.192   7.226  1.00  0.00    +0.130 A 
ATOM     13  N   UNL     1     -24.706   6.341   7.412  1.00  0.00    -0.174 NA
ATOM     14  N   UNL     1     -25.936   6.126   7.974  1.00  0.00    -0.215 N 
ATOM     15  N   UNL     1     -28.169   7.172   7.849  1.00  0.00    -0.213 NA
ATOM     16  C   UNL     1     -30.246   8.368   7.492  1.00  0.00    +0.090 C 
BRANCH  14  17
ATOM     17  C   UNL     1     -26.105   5.042   8.893  1.00  0.00    +0.068 A 
ATOM     18  C   UNL     1     -25.101   4.792   9.848  1.00  0.00    +0.035 A 
ATOM     19  C   UNL     1     -27.242   4.221   8.874  1.00  0.00    +0.035 A 
ATOM     20  C   UNL     1     -25.227   3.744  10.764  1.00  0.00    +0.088 A 
ATOM     21  C   UNL     1     -27.375   3.169   9.790  1.00  0.00    +0.088 A 
ATOM     22  C   UNL     1     -26.367   2.934  10.731  1.00  0.00    +0.269 A 
BRANCH  22  23
ATOM     23  N   UNL     1     -26.508   1.832  11.691  1.00  0.00    +0.062 N 
ATOM     24  O   UNL     1     -27.338   1.964  12.603  1.00  0.00    -0.258 OA
ATOM     25  O   UNL     1     -25.789   0.834  11.535  1.00  0.00    -0.258 OA
ENDBRANCH  22  23
ENDBRANCH  14  17
ENDBRANCH   1   7
TORSDOF 6
ENDMDL
MODEL 3
REMARK VINA RESULT:    -8.110      5.206      6.783
REMARK INTER + INTRA:         -11.374
REMARK INTER:                 -10.622
REMARK INTRA:                  -0.753
REMARK UNBOUND:                -0.419
REMARK SMILES CCCCNc1nc(C)nc2c1cnn2-c1ccc([N+](=O)[O-])cc1
REMARK SMILES IDX 5 1 4 3 3 4 2 5 1 6 6 7 12 8 7 9 13 10 11 11 8 12 14 13
REMARK SMILES IDX 15 14 10 15 9 16 16 17 17 18 24 19 18 20 23 21 19 22 20 23
REMARK SMILES IDX 21 24 22 25
REMARK H PARENT 5 2
ROOT
ATOM      1  N   UNL     1     -33.935   4.043   8.632  1.00  0.00    -0.369 N 
ATOM      2  H   UNL     1     -33.983   3.148   8.159  1.00  0.00    +0.162 HD
ENDROOT
BRANCH   1   3
ATOM      3  C   UNL     1     -35.095   4.365   9.453  1.00  0.00    +0.114 C 
BRANCH   3   4
ATOM      4  C   UNL     1     -34.726   4.298  10.938  1.00  0.00    +0.021 C 
BRANCH   4   5
ATOM      5  C   UNL     1     -33.638   3.260  11.228  1.00  0.00    -0.002 C 
ATOM      6  C   UNL     1     -34.236   1.885  11.478  1.00  0.00    +0.004 C 
ENDBRANCH   4   5
ENDBRANCH   3   4
ENDBRANCH   1   3
BRANCH   1   7
ATOM      7  C   UNL     1     -33.477   5.065   7.799  1.00  0.00    +0.140 A 
ATOM      8  C   UNL     1     -32.337   5.818   8.102  1.00  0.00    +0.082 A 
ATOM      9  N   UNL     1     -34.144   5.373   6.663  1.00  0.00    -0.216 NA
ATOM     10  C   UNL     1     -31.384   5.873   9.130  1.00  0.00    +0.150 A 
ATOM     11  C   UNL     1     -31.959   6.815   7.218  1.00  0.00    +0.168 A 
ATOM     12  C   UNL     1     -33.692   6.363   5.865  1.00  0.00    +0.130 A 
ATOM     13  N   UNL     1     -30.454   6.807   8.931  1.00  0.00    -0.174 NA
ATOM     14  N   UNL     1     -30.811   7.401   7.750  1.00  0.00    -0.215 N 
ATOM     15  N   UNL     1     -32.608   7.128   6.079  1.00  0.00    -0.213 NA
ATOM     16  C   UNL     1     -34.504   6.664   4.642  1.00  0.00    +0.090 C 
BRANCH  14  17
ATOM     17  C   UNL     1     -30.015   8.475   7.238  1.00  0.00    +0.068 A 
ATOM     18  C   UNL     1     -30.592   9.754   7.115  1.00  0.00    +0.035 A 
ATOM     19  C   UNL     1     -28.678   8.295   6.856  1.00  0.00    +0.035 A 
ATOM     20  C   UNL     1     -29.850  10.831   6.620  1.00  0.00    +0.088 A 
ATOM     21  C   UNL     1     -27.930   9.370   6.359  1.00  0.00    +0.088 A 
ATOM     22  C   UNL     1     -28.518  10.634   6.243  1.00  0.00    +0.269 A 
BRANCH  22  23
ATOM     23  N   UNL     1     -27.731  11.760   5.723  1.00  0.00    +0.062 N 
ATOM     24  O   UNL     1     -28.326  12.826   5.507  1.00  0.00    -0.258 OA
ATOM     25  O   UNL     1     -26.521  11.579   5.529  1.00  0.00    -0.258 OA
ENDBRANCH  22  23
ENDBRANCH  14  17
ENDBRANCH   1   7
TORSDOF 6
ENDMDL
MODEL 4
REMARK VINA RESULT:    -7.894      7.371      9.970
REMARK INTER + INTRA:         -11.082
REMARK INTER:                 -10.322
REMARK INTRA:                  -0.760
REMARK UNBOUND:                -0.419
REMARK SMILES CCCCNc1nc(C)nc2c1cnn2-c1ccc([N+](=O)[O-])cc1
REMARK SMILES IDX 5 1 4 3 3 4 2 5 1 6 6 7 12 8 7 9 13 10 11 11 8 12 14 13
REMARK SMILES IDX 15 14 10 15 9 16 16 17 17 18 24 19 18 20 23 21 19 22 20 23
REMARK SMILES IDX 21 24 22 25
REMARK H PARENT 5 2
ROOT
ATOM      1  N   UNL     1     -36.290   6.606   9.226  1.00  0.00    -0.369 N 
ATOM      2  H   UNL     1     -35.723   7.399   9.506  1.00  0.00    +0.162 HD
ENDROOT
BRANCH   1   3
ATOM      3  C   UNL     1     -37.481   6.389  10.037  1.00  0.00    +0.114 C 
BRANCH   3   4
ATOM      4  C   UNL     1     -38.544   5.643   9.226  1.00  0.00    +0.021 C 
BRANCH   4   5
ATOM      5  C   UNL     1     -39.241   4.546  10.037  1.00  0.00    -0.002 C 
ATOM      6  C   UNL     1     -38.251   3.496  10.515  1.00  0.00    +0.004 C 
ENDBRANCH   4   5
ENDBRANCH   3   4
ENDBRANCH   1   3
BRANCH   1   7
ATOM      7  C   UNL     1     -35.526   5.472   8.951  1.00  0.00    +0.140 A 
ATOM      8  C   UNL     1     -34.783   4.816   9.939  1.00  0.00    +0.082 A 
ATOM      9  N   UNL     1     -35.467   4.973   7.693  1.00  0.00    -0.216 NA
ATOM     10  C   UNL     1     -34.531   4.973  11.310  1.00  0.00    +0.150 A 
ATOM     11  C   UNL     1     -34.051   3.699   9.573  1.00  0.00    +0.168 A 
ATOM     12  C   UNL     1     -34.725   3.875   7.439  1.00  0.00    +0.130 A 
ATOM     13  N   UNL     1     -33.724   4.035  11.804  1.00  0.00    -0.174 NA
ATOM     14  N   UNL     1     -33.415   3.246  10.729  1.00  0.00    -0.215 N 
ATOM     15  N   UNL     1     -33.989   3.187   8.328  1.00  0.00    -0.213 NA
ATOM     16  C   UNL     1     -34.686   3.406   6.017  1.00  0.00    +0.090 C 
BRANCH  14  17
ATOM     17  C   UNL     1     -32.540   2.128  10.909  1.00  0.00    +0.068 A 
ATOM     18  C   UNL     1     -32.901   1.118  11.822  1.00  0.00    +0.035 A 
ATOM     19  C   UNL     1     -31.334   2.006  10.205  1.00  0.00    +0.035 A 
ATOM     20  C   UNL     1     -32.075   0.009  12.028  1.00  0.00    +0.088 A 
ATOM     21  C   UNL     1     -30.502   0.897  10.408  1.00  0.00    +0.088 A 
ATOM     22  C   UNL     1     -30.875  -0.097  11.318  1.00  0.00    +0.269 A 
BRANCH  22  23
ATOM     23  N   UNL     1     -30.002  -1.259  11.528  1.00  0.00    +0.062 N 
ATOM     24  O   UNL     1     -28.841  -1.193  11.098  1.00  0.00    -0.258 OA
ATOM     25  O   UNL     1     -30.477  -2.239  12.121  1.00  0.00    -0.258 OA
ENDBRANCH  22  23
ENDBRANCH  14  17
ENDBRANCH   1   7
TORSDOF 6
ENDMDL
MODEL 5
REMARK VINA RESULT:    -7.381      4.390      8.453
REMARK INTER + INTRA:         -10.389
REMARK INTER:                  -9.839
REMARK INTRA:                  -0.550
REMARK UNBOUND:                -0.419
REMARK SMILES CCCCNc1nc(C)nc2c1cnn2-c1ccc([N+](=O)[O-])cc1
REMARK SMILES IDX 5 1 4 3 3 4 2 5 1 6 6 7 12 8 7 9 13 10 11 11 8 12 14 13
REMARK SMILES IDX 15 14 10 15 9 16 16 17 17 18 24 19 18 20 23 21 19 22 20 23
REMARK SMILES IDX 21 24 22 25
REMARK H PARENT 5 2
ROOT
ATOM      1  N   UNL     1     -27.130   7.801   7.494  1.00  0.00    -0.369 N 
ATOM      2  H   UNL     1     -26.312   8.132   7.994  1.00  0.00    +0.162 HD
ENDROOT
BRANCH   1   3
ATOM      3  C   UNL     1     -28.080   8.840   7.120  1.00  0.00    +0.114 C 
BRANCH   3   4
ATOM      4  C   UNL     1     -27.340  10.141   6.797  1.00  0.00    +0.021 C 
BRANCH   4   5
ATOM      5  C   UNL     1     -28.177  11.099   5.944  1.00  0.00    -0.002 C 
ATOM      6  C   UNL     1     -29.507  11.415   6.610  1.00  0.00    +0.004 C 
ENDBRANCH   4   5
ENDBRANCH   3   4
ENDBRANCH   1   3
BRANCH   1   7
ATOM      7  C   UNL     1     -27.678   6.653   8.067  1.00  0.00    +0.140 A 
ATOM      8  C   UNL     1     -26.888   5.571   8.473  1.00  0.00    +0.082 A 
ATOM      9  N   UNL     1     -29.017   6.543   8.234  1.00  0.00    -0.216 NA
ATOM     10  C   UNL     1     -25.525   5.239   8.477  1.00  0.00    +0.150 A 
ATOM     11  C   UNL     1     -27.520   4.472   9.028  1.00  0.00    +0.168 A 
ATOM     12  C   UNL     1     -29.536   5.428   8.789  1.00  0.00    +0.130 A 
ATOM     13  N   UNL     1     -25.281   4.039   9.004  1.00  0.00    -0.174 NA
ATOM     14  N   UNL     1     -26.517   3.554   9.340  1.00  0.00    -0.215 N 
ATOM     15  N   UNL     1     -28.850   4.351   9.208  1.00  0.00    -0.213 NA
ATOM     16  C   UNL     1     -31.029   5.370   8.910  1.00  0.00    +0.090 C 
BRANCH  14  17
ATOM     17  C   UNL     1     -26.621   2.255   9.932  1.00  0.00    +0.068 A 
ATOM     18  C   UNL     1     -26.213   1.131   9.190  1.00  0.00    +0.035 A 
ATOM     19  C   UNL     1     -27.119   2.067  11.229  1.00  0.00    +0.035 A 
ATOM     20  C   UNL     1     -26.298  -0.156   9.731  1.00  0.00    +0.088 A 
ATOM     21  C   UNL     1     -27.207   0.780  11.777  1.00  0.00    +0.088 A 
ATOM     22  C   UNL     1     -26.797  -0.326  11.026  1.00  0.00    +0.269 A 
BRANCH  22  23
ATOM     23  N   UNL     1     -26.889  -1.674  11.602  1.00  0.00    +0.062 N 
ATOM     24  O   UNL     1     -26.465  -2.620  10.922  1.00  0.00    -0.258 OA
ATOM     25  O   UNL     1     -27.386  -1.787  12.732  1.00  0.00    -0.258 OA
ENDBRANCH  22  23
ENDBRANCH  14  17
ENDBRANCH   1   7
TORSDOF 6
ENDMDL
MODEL 6
REMARK VINA RESULT:    -7.226      6.885     10.246
REMARK INTER + INTRA:         -10.180
REMARK INTER:                  -9.652
REMARK INTRA:                  -0.528
REMARK UNBOUND:                -0.419
REMARK SMILES CCCCNc1nc(C)nc2c1cnn2-c1ccc([N+](=O)[O-])cc1
REMARK SMILES IDX 5 1 4 3 3 4 2 5 1 6 6 7 12 8 7 9 13 10 11 11 8 12 14 13
REMARK SMILES IDX 15 14 10 15 9 16 16 17 17 18 24 19 18 20 23 21 19 22 20 23
REMARK SMILES IDX 21 24 22 25
REMARK H PARENT 5 2
ROOT
ATOM      1  N   UNL     1     -35.154   4.988   8.501  1.00  0.00    -0.369 N 
ATOM      2  H   UNL     1     -36.086   5.368   8.621  1.00  0.00    +0.162 HD
ENDROOT
BRANCH   1   3
ATOM      3  C   UNL     1     -34.679   4.955   7.124  1.00  0.00    +0.114 C 
BRANCH   3   4
ATOM      4  C   UNL     1     -33.991   6.277   6.771  1.00  0.00    +0.021 C 
BRANCH   4   5
ATOM      5  C   UNL     1     -33.421   6.283   5.349  1.00  0.00    -0.002 C 
ATOM      6  C   UNL     1     -32.289   7.288   5.210  1.00  0.00    +0.004 C 
ENDBRANCH   4   5
ENDBRANCH   3   4
ENDBRANCH   1   3
BRANCH   1   7
ATOM      7  C   UNL     1     -34.951   3.823   9.242  1.00  0.00    +0.140 A 
ATOM      8  C   UNL     1     -33.671   3.349   9.551  1.00  0.00    +0.082 A 
ATOM      9  N   UNL     1     -36.007   3.095   9.676  1.00  0.00    -0.216 NA
ATOM     10  C   UNL     1     -32.345   3.736   9.307  1.00  0.00    +0.150 A 
ATOM     11  C   UNL     1     -33.567   2.181  10.288  1.00  0.00    +0.168 A 
ATOM     12  C   UNL     1     -35.799   1.970  10.392  1.00  0.00    +0.130 A 
ATOM     13  N   UNL     1     -31.451   2.910   9.850  1.00  0.00    -0.174 NA
ATOM     14  N   UNL     1     -32.204   1.938  10.453  1.00  0.00    -0.215 N 
ATOM     15  N   UNL     1     -34.608   1.451  10.734  1.00  0.00    -0.213 NA
ATOM     16  C   UNL     1     -37.018   1.204  10.808  1.00  0.00    +0.090 C 
BRANCH  14  17
ATOM     17  C   UNL     1     -31.545   0.866  11.135  1.00  0.00    +0.068 A 
ATOM     18  C   UNL     1     -31.584   0.824  12.542  1.00  0.00    +0.035 A 
ATOM     19  C   UNL     1     -30.862  -0.146  10.446  1.00  0.00    +0.035 A 
ATOM     20  C   UNL     1     -30.954  -0.206  13.248  1.00  0.00    +0.088 A 
ATOM     21  C   UNL     1     -30.229  -1.181  11.147  1.00  0.00    +0.088 A 
ATOM     22  C   UNL     1     -30.277  -1.207  12.545  1.00  0.00    +0.269 A 
BRANCH  22  23
ATOM     23  N   UNL     1     -29.614  -2.293  13.278  1.00  0.00    +0.062 N 
ATOM     24  O   UNL     1     -29.092  -3.201  12.614  1.00  0.00    -0.258 OA
ATOM     25  O   UNL     1     -29.615  -2.239  14.516  1.00  0.00    -0.258 OA
ENDBRANCH  22  23
ENDBRANCH  14  17
ENDBRANCH   1   7
TORSDOF 6
ENDMDL
MODEL 7
REMARK VINA RESULT:    -6.610      4.267      8.411
REMARK INTER + INTRA:          -9.348
REMARK INTER:                  -8.737
REMARK INTRA:                  -0.611
REMARK UNBOUND:                -0.419
REMARK SMILES CCCCNc1nc(C)nc2c1cnn2-c1ccc([N+](=O)[O-])cc1
REMARK SMILES IDX 5 1 4 3 3 4 2 5 1 6 6 7 12 8 7 9 13 10 11 11 8 12 14 13
REMARK SMILES IDX 15 14 10 15 9 16 16 17 17 18 24 19 18 20 23 21 19 22 20 23
REMARK SMILES IDX 21 24 22 25
REMARK H PARENT 5 2
ROOT
ATOM      1  N   UNL     1     -24.601   6.675   7.532  1.00  0.00    -0.369 N 
ATOM      2  H   UNL     1     -23.742   6.227   7.830  1.00  0.00    +0.162 HD
ENDROOT
BRANCH   1   3
ATOM      3  C   UNL     1     -24.568   8.131   7.545  1.00  0.00    +0.114 C 
BRANCH   3   4
ATOM      4  C   UNL     1     -24.918   8.680   6.159  1.00  0.00    +0.021 C 
BRANCH   4   5
ATOM      5  C   UNL     1     -25.795   9.934   6.227  1.00  0.00    -0.002 C 
ATOM      6  C   UNL     1     -27.125   9.720   5.524  1.00  0.00    +0.004 C 
ENDBRANCH   4   5
ENDBRANCH   3   4
ENDBRANCH   1   3
BRANCH   1   7
ATOM      7  C   UNL     1     -25.735   6.087   8.095  1.00  0.00    +0.140 A 
ATOM      8  C   UNL     1     -25.666   4.918   8.862  1.00  0.00    +0.082 A 
ATOM      9  N   UNL     1     -26.958   6.632   7.899  1.00  0.00    -0.216 NA
ATOM     10  C   UNL     1     -24.670   4.029   9.293  1.00  0.00    +0.150 A 
ATOM     11  C   UNL     1     -26.844   4.404   9.377  1.00  0.00    +0.168 A 
ATOM     12  C   UNL     1     -28.048   6.056   8.449  1.00  0.00    +0.130 A 
ATOM     13  N   UNL     1     -25.146   3.033  10.040  1.00  0.00    -0.174 NA
ATOM     14  N   UNL     1     -26.496   3.256  10.089  1.00  0.00    -0.215 N 
ATOM     15  N   UNL     1     -28.068   4.940   9.198  1.00  0.00    -0.213 NA
ATOM     16  C   UNL     1     -29.368   6.701   8.159  1.00  0.00    +0.090 C 
BRANCH  14  17
ATOM     17  C   UNL     1     -27.330   2.348  10.816  1.00  0.00    +0.068 A 
ATOM     18  C   UNL     1     -27.575   2.589  12.182  1.00  0.00    +0.035 A 
ATOM     19  C   UNL     1     -27.910   1.223  10.211  1.00  0.00    +0.035 A 
ATOM     20  C   UNL     1     -28.384   1.727  12.929  1.00  0.00    +0.088 A 
ATOM     21  C   UNL     1     -28.721   0.356  10.955  1.00  0.00    +0.088 A 
ATOM     22  C   UNL     1     -28.955   0.610  12.310  1.00  0.00    +0.269 A 
BRANCH  22  23
ATOM     23  N   UNL     1     -29.805  -0.300  13.088  1.00  0.00    +0.062 N 
ATOM     24  O   UNL     1     -31.032  -0.227  12.919  1.00  0.00    -0.258 OA
ATOM     25  O   UNL     1     -29.249  -1.086  13.868  1.00  0.00    -0.258 OA
ENDBRANCH  22  23
ENDBRANCH  14  17
ENDBRANCH   1   7
TORSDOF 6
ENDMDL
MODEL 8
REMARK VINA RESULT:    -6.482     10.786     13.497
REMARK INTER + INTRA:          -9.175
REMARK INTER:                  -8.456
REMARK INTRA:                  -0.718
REMARK UNBOUND:                -0.419
REMARK SMILES CCCCNc1nc(C)nc2c1cnn2-c1ccc([N+](=O)[O-])cc1
REMARK SMILES IDX 5 1 4 3 3 4 2 5 1 6 6 7 12 8 7 9 13 10 11 11 8 12 14 13
REMARK SMILES IDX 15 14 10 15 9 16 16 17 17 18 24 19 18 20 23 21 19 22 20 23
REMARK SMILES IDX 21 24 22 25
REMARK H PARENT 5 2
ROOT
ATOM      1  N   UNL     1     -41.230  -3.940  12.880  1.00  0.00    -0.369 N 
ATOM      2  H   UNL     1     -42.033  -3.415  13.208  1.00  0.00    +0.162 HD
ENDROOT
BRANCH   1   3
ATOM      3  C   UNL     1     -40.549  -4.720  13.905  1.00  0.00    +0.114 C 
BRANCH   3   4
ATOM      4  C   UNL     1     -40.745  -4.071  15.278  1.00  0.00    +0.021 C 
BRANCH   4   5
ATOM      5  C   UNL     1     -42.218  -3.797  15.596  1.00  0.00    -0.002 C 
ATOM      6  C   UNL     1     -42.369  -2.645  16.575  1.00  0.00    +0.004 C 
ENDBRANCH   4   5
ENDBRANCH   3   4
ENDBRANCH   1   3
BRANCH   1   7
ATOM      7  C   UNL     1     -40.407  -3.189  12.040  1.00  0.00    +0.140 A 
ATOM      8  C   UNL     1     -40.094  -1.851  12.304  1.00  0.00    +0.082 A 
ATOM      9  N   UNL     1     -39.891  -3.739  10.915  1.00  0.00    -0.216 NA
ATOM     10  C   UNL     1     -40.401  -0.898  13.287  1.00  0.00    +0.150 A 
ATOM     11  C   UNL     1     -39.273  -1.184  11.411  1.00  0.00    +0.168 A 
ATOM     12  C   UNL     1     -39.096  -3.004  10.110  1.00  0.00    +0.130 A 
ATOM     13  N   UNL     1     -39.818   0.281  13.072  1.00  0.00    -0.174 NA
ATOM     14  N   UNL     1     -39.123   0.113  11.904  1.00  0.00    -0.215 N 
ATOM     15  N   UNL     1     -38.745  -1.720  10.293  1.00  0.00    -0.213 NA
ATOM     16  C   UNL     1     -38.592  -3.676   8.870  1.00  0.00    +0.090 C 
BRANCH  14  17
ATOM     17  C   UNL     1     -38.377   1.211  11.369  1.00  0.00    +0.068 A 
ATOM     18  C   UNL     1     -39.012   2.458  11.215  1.00  0.00    +0.035 A 
ATOM     19  C   UNL     1     -37.033   1.083  10.992  1.00  0.00    +0.035 A 
ATOM     20  C   UNL     1     -38.320   3.557  10.696  1.00  0.00    +0.088 A 
ATOM     21  C   UNL     1     -36.333   2.181  10.472  1.00  0.00    +0.088 A 
ATOM     22  C   UNL     1     -36.979   3.413  10.326  1.00  0.00    +0.269 A 
BRANCH  22  23
ATOM     23  N   UNL     1     -36.245   4.562   9.781  1.00  0.00    +0.062 N 
ATOM     24  O   UNL     1     -35.115   4.792  10.237  1.00  0.00    -0.258 OA
ATOM     25  O   UNL     1     -36.797   5.235   8.899  1.00  0.00    -0.258 OA
ENDBRANCH  22  23
ENDBRANCH  14  17
ENDBRANCH   1   7
TORSDOF 6
ENDMDL
MODEL 9
REMARK VINA RESULT:    -6.282     11.146     13.985
REMARK INTER + INTRA:          -8.905
REMARK INTER:                  -8.119
REMARK INTRA:                  -0.786
REMARK UNBOUND:                -0.419
REMARK SMILES CCCCNc1nc(C)nc2c1cnn2-c1ccc([N+](=O)[O-])cc1
REMARK SMILES IDX 5 1 4 3 3 4 2 5 1 6 6 7 12 8 7 9 13 10 11 11 8 12 14 13
REMARK SMILES IDX 15 14 10 15 9 16 16 17 17 18 24 19 18 20 23 21 19 22 20 23
REMARK SMILES IDX 21 24 22 25
REMARK H PARENT 5 2
ROOT
ATOM      1  N   UNL     1     -42.841  -1.065  15.067  1.00  0.00    -0.369 N 
ATOM      2  H   UNL     1     -43.775  -0.690  14.947  1.00  0.00    +0.162 HD
ENDROOT
BRANCH   1   3
ATOM      3  C   UNL     1     -42.653  -1.864  16.271  1.00  0.00    +0.114 C 
BRANCH   3   4
ATOM      4  C   UNL     1     -41.493  -2.845  16.077  1.00  0.00    +0.021 C 
BRANCH   4   5
ATOM      5  C   UNL     1     -41.716  -3.794  14.896  1.00  0.00    -0.002 C 
ATOM      6  C   UNL     1     -42.533  -5.008  15.307  1.00  0.00    +0.004 C 
ENDBRANCH   4   5
ENDBRANCH   3   4
ENDBRANCH   1   3
BRANCH   1   7
ATOM      7  C   UNL     1     -41.847  -0.123  14.801  1.00  0.00    +0.140 A 
ATOM      8  C   UNL     1     -41.189  -0.062  13.567  1.00  0.00    +0.082 A 
ATOM      9  N   UNL     1     -41.472   0.765  15.751  1.00  0.00    -0.216 NA
ATOM     10  C   UNL     1     -41.222  -0.757  12.349  1.00  0.00    +0.150 A 
ATOM     11  C   UNL     1     -40.212   0.905  13.395  1.00  0.00    +0.168 A 
ATOM     12  C   UNL     1     -40.510   1.673  15.483  1.00  0.00    +0.130 A 
ATOM     13  N   UNL     1     -40.361  -0.279  11.451  1.00  0.00    -0.174 NA
ATOM     14  N   UNL     1     -39.725   0.747  12.097  1.00  0.00    -0.215 N 
ATOM     15  N   UNL     1     -39.834   1.801  14.328  1.00  0.00    -0.213 NA
ATOM     16  C   UNL     1     -40.130   2.599  16.597  1.00  0.00    +0.090 C 
BRANCH  14  17
ATOM     17  C   UNL     1     -38.709   1.485  11.410  1.00  0.00    +0.068 A 
ATOM     18  C   UNL     1     -38.956   2.827  11.061  1.00  0.00    +0.035 A 
ATOM     19  C   UNL     1     -37.474   0.913  11.072  1.00  0.00    +0.035 A 
ATOM     20  C   UNL     1     -37.990   3.583  10.389  1.00  0.00    +0.088 A 
ATOM     21  C   UNL     1     -36.502   1.666  10.399  1.00  0.00    +0.088 A 
ATOM     22  C   UNL     1     -36.764   2.997  10.060  1.00  0.00    +0.269 A 
BRANCH  22  23
ATOM     23  N   UNL     1     -35.744   3.785   9.355  1.00  0.00    +0.062 N 
ATOM     24  O   UNL     1     -35.340   4.822   9.900  1.00  0.00    -0.258 OA
ATOM     25  O   UNL     1     -35.349   3.367   8.257  1.00  0.00    -0.258 OA
ENDBRANCH  22  23
ENDBRANCH  14  17
ENDBRANCH   1   7
TORSDOF 6
ENDMDL
