REMARK SMILES N=C(NN=Cc1ccccc1[N+](=O)[O-])NN(O)O
REMARK SMILES IDX 15 1 2 2 1 3 3 4 16 8 17 9 18 11 4 13 5 14 6 15 11 16 7 17
REMARK SMILES IDX 10 18 8 19 9 20 12 21 13 22 14 23
REMARK H PARENT 15 5 1 6 3 7 17 10 18 12
ROOT
ATOM      1  N   UNL     1       3.610   0.638   0.729  1.00  0.00    -0.240 N 
ATOM      2  C   UNL     1       2.439  -0.093   0.732  1.00  0.00    +0.227 C 
ATOM      3  N   UNL     1       2.390  -1.357   1.017  1.00  0.00    -0.267 NA
ATOM      4  N   UNL     1       1.331   0.678   0.465  1.00  0.00    -0.246 N 
ATOM      5  H   UNL     1       3.638   1.310  -0.034  1.00  0.00    +0.190 HD
ATOM      6  H   UNL     1       3.365  -1.647   1.160  1.00  0.00    +0.191 HD
ATOM      7  H   UNL     1       1.483   1.678   0.401  1.00  0.00    +0.193 HD
ENDROOT
BRANCH   1   8
ATOM      8  N   UNL     1       4.796  -0.084   0.826  1.00  0.00    +0.033 NA
BRANCH   8   9
ATOM      9  O   UNL     1       5.097  -0.377   2.208  1.00  0.00    -0.271 OA
ATOM     10  H   UNL     1       4.344   0.063   2.640  1.00  0.00    +0.243 HD
ENDBRANCH   8   9
BRANCH   8  11
ATOM     11  O   UNL     1       5.888   0.715   0.323  1.00  0.00    -0.271 OA
ATOM     12  H   UNL     1       6.358   0.036  -0.195  1.00  0.00    +0.243 HD
ENDBRANCH   8  11
ENDBRANCH   1   8
BRANCH   4  13
ATOM     13  N   UNL     1       0.140   0.179   0.033  1.00  0.00    -0.180 NA
ATOM     14  C   UNL     1      -0.885   0.923   0.282  1.00  0.00    +0.148 C 
BRANCH  14  15
ATOM     15  C   UNL     1      -2.231   0.507  -0.141  1.00  0.00    +0.072 A 
ATOM     16  C   UNL     1      -2.491  -0.153  -1.344  1.00  0.00    +0.278 A 
ATOM     17  C   UNL     1      -3.286   0.753   0.746  1.00  0.00    +0.017 A 
ATOM     18  C   UNL     1      -3.782  -0.599  -1.660  1.00  0.00    +0.086 A 
ATOM     19  C   UNL     1      -4.577   0.314   0.435  1.00  0.00    +0.001 A 
ATOM     20  C   UNL     1      -4.823  -0.367  -0.760  1.00  0.00    +0.007 A 
BRANCH  16  21
ATOM     21  N   UNL     1      -1.466  -0.283  -2.365  1.00  0.00    +0.063 N 
ATOM     22  O   UNL     1      -0.914   0.762  -2.741  1.00  0.00    -0.258 OA
ATOM     23  O   UNL     1      -1.299  -1.406  -2.859  1.00  0.00    -0.258 OA
ENDBRANCH  16  21
ENDBRANCH  14  15
ENDBRANCH   4  13
TORSDOF 6
