REMARK SMILES CC(=O)Oc1ccc2c(C)cc(=O)oc2c1
REMARK SMILES IDX 4 1 2 2 3 3 1 4 5 5 16 6 6 7 15 8 7 9 8 10 14 11 9 12 12 13
REMARK SMILES IDX 11 14 13 15 10 16
REMARK H PARENT
ROOT
ATOM      1  O   UNL     1      -2.782  -0.257   0.789  1.00  0.00    -0.427 OA
ENDROOT
BRANCH   1   2
ATOM      2  C   UNL     1      -3.564  -0.780  -0.236  1.00  0.00    +0.308 C 
ATOM      3  O   UNL     1      -3.180  -1.158  -1.334  1.00  0.00    -0.252 OA
ATOM      4  C   UNL     1      -4.993  -0.813   0.218  1.00  0.00    +0.139 C 
ENDBRANCH   1   2
BRANCH   1   5
ATOM      5  C   UNL     1      -1.417  -0.165   0.502  1.00  0.00    +0.134 A 
ATOM      6  C   UNL     1      -0.843   1.100   0.472  1.00  0.00    +0.095 A 
ATOM      7  C   UNL     1      -0.639  -1.310   0.336  1.00  0.00    +0.048 A 
ATOM      8  C   UNL     1       0.527   1.203   0.235  1.00  0.00    +0.142 A 
ATOM      9  C   UNL     1       0.734  -1.184   0.097  1.00  0.00    +0.016 A 
ATOM     10  C   UNL     1       1.339   0.080   0.040  1.00  0.00    +0.021 A 
ATOM     11  O   UNL     1       1.056   2.507   0.206  1.00  0.00    -0.423 OA
ATOM     12  C   UNL     1       2.773   0.283  -0.209  1.00  0.00    -0.033 A 
ATOM     13  C   UNL     1       2.403   2.727  -0.023  1.00  0.00    +0.336 A 
ATOM     14  C   UNL     1       3.244   1.539  -0.234  1.00  0.00    +0.098 A 
ATOM     15  O   UNL     1       2.890   3.851  -0.051  1.00  0.00    -0.246 OA
ATOM     16  C   UNL     1       3.675  -0.895  -0.432  1.00  0.00    +0.045 C 
ENDBRANCH   1   5
TORSDOF 2
