REMARK SMILES COc1ccccc1N[C@@H](c1ccccc1)c1oc(CO)cc(=O)c1O
REMARK SMILES IDX 10 1 9 2 8 4 3 5 4 6 7 7 5 8 6 9 2 10 1 11 11 12 12 13 16 14
REMARK SMILES IDX 13 15 15 16 14 17 17 18 25 19 18 20 23 21 19 22 24 23 22 24
REMARK SMILES IDX 26 25 20 27 21 28
REMARK H PARENT 9 3 26 26 21 29
ROOT
ATOM      1  C   UNL     1      -0.141  -0.277   0.714  1.00  0.00    +0.181 C 
ENDROOT
BRANCH   1   2
ATOM      2  N   UNL     1       1.160  -0.590   0.117  1.00  0.00    -0.368 N 
ATOM      3  H   UNL     1       1.058  -0.883  -0.860  1.00  0.00    +0.161 HD
BRANCH   2   4
ATOM      4  C   UNL     1       2.218   0.335   0.209  1.00  0.00    +0.078 A 
ATOM      5  C   UNL     1       3.071   0.518  -0.907  1.00  0.00    +0.141 A 
ATOM      6  C   UNL     1       4.154   1.402  -0.829  1.00  0.00    +0.048 A 
ATOM      7  C   UNL     1       2.509   1.020   1.396  1.00  0.00    +0.029 A 
ATOM      8  C   UNL     1       4.408   2.094   0.356  1.00  0.00    +0.004 A 
ATOM      9  C   UNL     1       3.591   1.901   1.467  1.00  0.00    +0.002 A 
BRANCH   5  10
ATOM     10  O   UNL     1       2.726  -0.203  -2.028  1.00  0.00    -0.495 OA
ATOM     11  C   UNL     1       3.551  -0.050  -3.174  1.00  0.00    +0.278 C 
ENDBRANCH   5  10
ENDBRANCH   2   4
ENDBRANCH   1   2
BRANCH   1  12
ATOM     12  C   UNL     1      -0.751   1.027   0.205  1.00  0.00    -0.018 A 
ATOM     13  C   UNL     1      -1.304   1.940   1.121  1.00  0.00    +0.006 A 
ATOM     14  C   UNL     1      -0.811   1.337  -1.164  1.00  0.00    +0.006 A 
ATOM     15  C   UNL     1      -1.887   3.130   0.682  1.00  0.00    +0.000 A 
ATOM     16  C   UNL     1      -1.394   2.528  -1.601  1.00  0.00    +0.000 A 
ATOM     17  C   UNL     1      -1.931   3.423  -0.679  1.00  0.00    +0.000 A 
ENDBRANCH   1  12
BRANCH   1  18
ATOM     18  C   UNL     1      -1.112  -1.440   0.525  1.00  0.00    +0.176 A 
ATOM     19  C   UNL     1      -1.173  -2.249  -0.548  1.00  0.00    +0.205 A 
ATOM     20  O   UNL     1      -1.965  -1.601   1.618  1.00  0.00    -0.457 OA
ATOM     21  C   UNL     1      -2.171  -3.347  -0.560  1.00  0.00    +0.227 A 
ATOM     22  C   UNL     1      -2.907  -2.617   1.622  1.00  0.00    +0.133 A 
ATOM     23  O   UNL     1      -2.248  -4.103  -1.525  1.00  0.00    -0.286 OA
ATOM     24  C   UNL     1      -3.049  -3.483   0.610  1.00  0.00    +0.101 A 
BRANCH  19  25
ATOM     25  O   UNL     1      -0.370  -2.113  -1.667  1.00  0.00    -0.502 OA
ATOM     26  H   UNL     1      -0.620  -2.863  -2.251  1.00  0.00    +0.293 HD
ENDBRANCH  19  25
BRANCH  22  27
ATOM     27  C   UNL     1      -3.752  -2.663   2.862  1.00  0.00    +0.231 C 
BRANCH  27  28
ATOM     28  O   UNL     1      -4.484  -1.454   3.023  1.00  0.00    -0.388 OA
ATOM     29  H   UNL     1      -4.263  -0.857   2.282  1.00  0.00    +0.211 HD
ENDBRANCH  27  28
ENDBRANCH  22  27
ENDBRANCH   1  18
TORSDOF 8
