MODEL 1
REMARK VINA RESULT:    -8.810      0.000      0.000
REMARK INTER + INTRA:         -10.405
REMARK INTER:                 -10.356
REMARK INTRA:                  -0.050
REMARK UNBOUND:                -0.050
REMARK SMILES CCNc1ncnc2c1cnn2-c1ccccc1
REMARK SMILES IDX 3 1 2 3 1 4 4 5 9 6 5 7 10 8 8 9 6 10 11 11 12 12 7 13 13 14
REMARK SMILES IDX 14 15 18 16 15 17 17 18 16 19
REMARK H PARENT 3 2
ROOT
ATOM      1  N   UNL     1     -25.395   5.111   8.033  1.00  0.00    -0.370 N 
ATOM      2  H   UNL     1     -24.446   5.450   7.928  1.00  0.00    +0.162 HD
ENDROOT
BRANCH   1   3
ATOM      3  C   UNL     1     -25.574   4.083   9.048  1.00  0.00    +0.111 C 
ATOM      4  C   UNL     1     -24.747   4.380  10.288  1.00  0.00    +0.027 C 
ENDBRANCH   1   3
BRANCH   1   5
ATOM      5  C   UNL     1     -26.365   6.102   7.927  1.00  0.00    +0.140 A 
ATOM      6  C   UNL     1     -26.143   7.291   7.215  1.00  0.00    +0.082 A 
ATOM      7  N   UNL     1     -27.579   5.938   8.503  1.00  0.00    -0.219 NA
ATOM      8  C   UNL     1     -25.100   7.862   6.472  1.00  0.00    +0.150 A 
ATOM      9  C   UNL     1     -27.167   8.225   7.158  1.00  0.00    +0.168 A 
ATOM     10  C   UNL     1     -28.498   6.911   8.379  1.00  0.00    +0.226 A 
ATOM     11  N   UNL     1     -25.400   9.066   5.986  1.00  0.00    -0.174 NA
ATOM     12  N   UNL     1     -26.685   9.296   6.404  1.00  0.00    -0.215 N 
ATOM     13  N   UNL     1     -28.378   8.081   7.737  1.00  0.00    -0.216 NA
BRANCH  12  14
ATOM     14  C   UNL     1     -27.331  10.520   6.044  1.00  0.00    +0.067 A 
ATOM     15  C   UNL     1     -26.614  11.481   5.308  1.00  0.00    +0.028 A 
ATOM     16  C   UNL     1     -28.656  10.795   6.402  1.00  0.00    +0.028 A 
ATOM     17  C   UNL     1     -27.214  12.688   4.941  1.00  0.00    +0.002 A 
ATOM     18  C   UNL     1     -29.252  12.005   6.030  1.00  0.00    +0.002 A 
ATOM     19  C   UNL     1     -28.533  12.950   5.302  1.00  0.00    +0.000 A 
ENDBRANCH  12  14
ENDBRANCH   1   5
TORSDOF 3
ENDMDL
MODEL 2
REMARK VINA RESULT:    -8.623      0.916      2.317
REMARK INTER + INTRA:         -10.185
REMARK INTER:                 -10.132
REMARK INTRA:                  -0.053
REMARK UNBOUND:                -0.050
REMARK SMILES CCNc1ncnc2c1cnn2-c1ccccc1
REMARK SMILES IDX 3 1 2 3 1 4 4 5 9 6 5 7 10 8 8 9 6 10 11 11 12 12 7 13 13 14
REMARK SMILES IDX 14 15 18 16 15 17 17 18 16 19
REMARK H PARENT 3 2
ROOT
ATOM      1  N   UNL     1     -26.980   4.824   8.931  1.00  0.00    -0.370 N 
ATOM      2  H   UNL     1     -27.754   4.355   8.476  1.00  0.00    +0.162 HD
ENDROOT
BRANCH   1   3
ATOM      3  C   UNL     1     -25.976   3.941   9.505  1.00  0.00    +0.111 C 
ATOM      4  C   UNL     1     -26.053   3.925  11.023  1.00  0.00    +0.027 C 
ENDBRANCH   1   3
BRANCH   1   5
ATOM      5  C   UNL     1     -26.546   5.970   8.274  1.00  0.00    +0.140 A 
ATOM      6  C   UNL     1     -27.422   7.011   7.930  1.00  0.00    +0.082 A 
ATOM      7  N   UNL     1     -25.239   6.124   7.956  1.00  0.00    -0.219 NA
ATOM      8  C   UNL     1     -28.789   7.290   8.070  1.00  0.00    +0.150 A 
ATOM      9  C   UNL     1     -26.903   8.119   7.277  1.00  0.00    +0.168 A 
ATOM     10  C   UNL     1     -24.849   7.245   7.325  1.00  0.00    +0.226 A 
ATOM     11  N   UNL     1     -29.143   8.460   7.543  1.00  0.00    -0.174 NA
ATOM     12  N   UNL     1     -27.975   8.985   7.053  1.00  0.00    -0.215 N 
ATOM     13  N   UNL     1     -25.605   8.283   6.943  1.00  0.00    -0.216 NA
BRANCH  12  14
ATOM     14  C   UNL     1     -27.994  10.265   6.415  1.00  0.00    +0.067 A 
ATOM     15  C   UNL     1     -29.152  11.057   6.506  1.00  0.00    +0.028 A 
ATOM     16  C   UNL     1     -26.894  10.756   5.701  1.00  0.00    +0.028 A 
ATOM     17  C   UNL     1     -29.205  12.313   5.894  1.00  0.00    +0.002 A 
ATOM     18  C   UNL     1     -26.954  12.014   5.091  1.00  0.00    +0.002 A 
ATOM     19  C   UNL     1     -28.105  12.790   5.187  1.00  0.00    +0.000 A 
ENDBRANCH  12  14
ENDBRANCH   1   5
TORSDOF 3
ENDMDL
MODEL 3
REMARK VINA RESULT:    -8.290      1.182      6.859
REMARK INTER + INTRA:          -9.794
REMARK INTER:                  -9.575
REMARK INTRA:                  -0.219
REMARK UNBOUND:                -0.050
REMARK SMILES CCNc1ncnc2c1cnn2-c1ccccc1
REMARK SMILES IDX 3 1 2 3 1 4 4 5 9 6 5 7 10 8 8 9 6 10 11 11 12 12 7 13 13 14
REMARK SMILES IDX 14 15 18 16 15 17 17 18 16 19
REMARK H PARENT 3 2
ROOT
ATOM      1  N   UNL     1     -27.692  10.303   5.925  1.00  0.00    -0.370 N 
ATOM      2  H   UNL     1     -28.480  10.426   6.550  1.00  0.00    +0.162 HD
ENDROOT
BRANCH   1   3
ATOM      3  C   UNL     1     -27.114  11.535   5.410  1.00  0.00    +0.111 C 
ATOM      4  C   UNL     1     -28.132  12.664   5.403  1.00  0.00    +0.027 C 
ENDBRANCH   1   3
BRANCH   1   5
ATOM      5  C   UNL     1     -26.827   9.280   6.298  1.00  0.00    +0.140 A 
ATOM      6  C   UNL     1     -27.238   8.214   7.113  1.00  0.00    +0.082 A 
ATOM      7  N   UNL     1     -25.544   9.275   5.866  1.00  0.00    -0.219 NA
ATOM      8  C   UNL     1     -28.419   7.805   7.749  1.00  0.00    +0.150 A 
ATOM      9  C   UNL     1     -26.309   7.235   7.435  1.00  0.00    +0.168 A 
ATOM     10  C   UNL     1     -24.733   8.271   6.240  1.00  0.00    +0.226 A 
ATOM     11  N   UNL     1     -28.279   6.676   8.440  1.00  0.00    -0.174 NA
ATOM     12  N   UNL     1     -26.972   6.312   8.246  1.00  0.00    -0.215 N 
ATOM     13  N   UNL     1     -25.025   7.222   7.021  1.00  0.00    -0.216 NA
BRANCH  12  14
ATOM     14  C   UNL     1     -26.478   5.116   8.855  1.00  0.00    +0.067 A 
ATOM     15  C   UNL     1     -27.272   3.955   8.826  1.00  0.00    +0.028 A 
ATOM     16  C   UNL     1     -25.227   5.062   9.482  1.00  0.00    +0.028 A 
ATOM     17  C   UNL     1     -26.821   2.770   9.412  1.00  0.00    +0.002 A 
ATOM     18  C   UNL     1     -24.781   3.872  10.067  1.00  0.00    +0.002 A 
ATOM     19  C   UNL     1     -25.575   2.729  10.032  1.00  0.00    +0.000 A 
ENDBRANCH  12  14
ENDBRANCH   1   5
TORSDOF 3
ENDMDL
MODEL 4
REMARK VINA RESULT:    -7.984      8.285     10.220
REMARK INTER + INTRA:          -9.434
REMARK INTER:                  -8.975
REMARK INTRA:                  -0.459
REMARK UNBOUND:                -0.050
REMARK SMILES CCNc1ncnc2c1cnn2-c1ccccc1
REMARK SMILES IDX 3 1 2 3 1 4 4 5 9 6 5 7 10 8 8 9 6 10 11 11 12 12 7 13 13 14
REMARK SMILES IDX 14 15 18 16 15 17 17 18 16 19
REMARK H PARENT 3 2
ROOT
ATOM      1  N   UNL     1     -38.760   3.243  10.188  1.00  0.00    -0.370 N 
ATOM      2  H   UNL     1     -39.033   2.703   9.375  1.00  0.00    +0.162 HD
ENDROOT
BRANCH   1   3
ATOM      3  C   UNL     1     -38.480   2.460  11.383  1.00  0.00    +0.111 C 
ATOM      4  C   UNL     1     -37.612   1.254  11.063  1.00  0.00    +0.027 C 
ENDBRANCH   1   3
BRANCH   1   5
ATOM      5  C   UNL     1     -37.929   4.319   9.900  1.00  0.00    +0.140 A 
ATOM      6  C   UNL     1     -36.899   4.235   8.951  1.00  0.00    +0.082 A 
ATOM      7  N   UNL     1     -38.101   5.506  10.528  1.00  0.00    -0.219 NA
ATOM      8  C   UNL     1     -36.385   3.264   8.079  1.00  0.00    +0.150 A 
ATOM      9  C   UNL     1     -36.118   5.359   8.725  1.00  0.00    +0.168 A 
ATOM     10  C   UNL     1     -37.285   6.530  10.226  1.00  0.00    +0.226 A 
ATOM     11  N   UNL     1     -35.352   3.699   7.360  1.00  0.00    -0.174 NA
ATOM     12  N   UNL     1     -35.182   5.002   7.752  1.00  0.00    -0.215 N 
ATOM     13  N   UNL     1     -36.271   6.545   9.350  1.00  0.00    -0.216 NA
BRANCH  12  14
ATOM     14  C   UNL     1     -34.141   5.783   7.160  1.00  0.00    +0.067 A 
ATOM     15  C   UNL     1     -33.043   6.170   7.949  1.00  0.00    +0.028 A 
ATOM     16  C   UNL     1     -34.179   6.176   5.816  1.00  0.00    +0.028 A 
ATOM     17  C   UNL     1     -32.008   6.934   7.402  1.00  0.00    +0.002 A 
ATOM     18  C   UNL     1     -33.140   6.941   5.275  1.00  0.00    +0.002 A 
ATOM     19  C   UNL     1     -32.057   7.319   6.065  1.00  0.00    +0.000 A 
ENDBRANCH  12  14
ENDBRANCH   1   5
TORSDOF 3
ENDMDL
MODEL 5
REMARK VINA RESULT:    -7.542      6.634      8.961
REMARK INTER + INTRA:          -8.914
REMARK INTER:                  -8.498
REMARK INTRA:                  -0.416
REMARK UNBOUND:                -0.050
REMARK SMILES CCNc1ncnc2c1cnn2-c1ccccc1
REMARK SMILES IDX 3 1 2 3 1 4 4 5 9 6 5 7 10 8 8 9 6 10 11 11 12 12 7 13 13 14
REMARK SMILES IDX 14 15 18 16 15 17 17 18 16 19
REMARK H PARENT 3 2
ROOT
ATOM      1  N   UNL     1     -24.324   0.989   9.206  1.00  0.00    -0.370 N 
ATOM      2  H   UNL     1     -23.808   1.411   8.443  1.00  0.00    +0.162 HD
ENDROOT
BRANCH   1   3
ATOM      3  C   UNL     1     -23.503   0.417  10.263  1.00  0.00    +0.111 C 
ATOM      4  C   UNL     1     -22.352   1.338  10.632  1.00  0.00    +0.027 C 
ENDBRANCH   1   3
BRANCH   1   5
ATOM      5  C   UNL     1     -25.467   1.691   9.573  1.00  0.00    +0.140 A 
ATOM      6  C   UNL     1     -26.677   1.044   9.867  1.00  0.00    +0.082 A 
ATOM      7  N   UNL     1     -25.441   3.040   9.674  1.00  0.00    -0.219 NA
ATOM      8  C   UNL     1     -27.150  -0.275   9.916  1.00  0.00    +0.150 A 
ATOM      9  C   UNL     1     -27.769   1.821  10.226  1.00  0.00    +0.168 A 
ATOM     10  C   UNL     1     -26.561   3.690  10.035  1.00  0.00    +0.226 A 
ATOM     11  N   UNL     1     -28.435  -0.360  10.256  1.00  0.00    -0.174 NA
ATOM     12  N   UNL     1     -28.826   0.939  10.456  1.00  0.00    -0.215 N 
ATOM     13  N   UNL     1     -27.762   3.168  10.321  1.00  0.00    -0.216 NA
BRANCH  12  14
ATOM     14  C   UNL     1     -30.173   1.214  10.847  1.00  0.00    +0.067 A 
ATOM     15  C   UNL     1     -30.632   0.754  12.094  1.00  0.00    +0.028 A 
ATOM     16  C   UNL     1     -31.054   1.928  10.026  1.00  0.00    +0.028 A 
ATOM     17  C   UNL     1     -31.943   1.004  12.507  1.00  0.00    +0.002 A 
ATOM     18  C   UNL     1     -32.366   2.176  10.445  1.00  0.00    +0.002 A 
ATOM     19  C   UNL     1     -32.809   1.716  11.682  1.00  0.00    +0.000 A 
ENDBRANCH  12  14
ENDBRANCH   1   5
TORSDOF 3
ENDMDL
MODEL 6
REMARK VINA RESULT:    -7.504      3.399      6.838
REMARK INTER + INTRA:          -8.870
REMARK INTER:                  -8.678
REMARK INTRA:                  -0.192
REMARK UNBOUND:                -0.050
REMARK SMILES CCNc1ncnc2c1cnn2-c1ccccc1
REMARK SMILES IDX 3 1 2 3 1 4 4 5 9 6 5 7 10 8 8 9 6 10 11 11 12 12 7 13 13 14
REMARK SMILES IDX 14 15 18 16 15 17 17 18 16 19
REMARK H PARENT 3 2
ROOT
ATOM      1  N   UNL     1     -28.178  10.793   6.781  1.00  0.00    -0.370 N 
ATOM      2  H   UNL     1     -27.817  11.408   7.501  1.00  0.00    +0.162 HD
ENDROOT
BRANCH   1   3
ATOM      3  C   UNL     1     -27.502  10.886   5.495  1.00  0.00    +0.111 C 
ATOM      4  C   UNL     1     -27.322  12.333   5.067  1.00  0.00    +0.027 C 
ENDBRANCH   1   3
BRANCH   1   5
ATOM      5  C   UNL     1     -28.540   9.532   7.241  1.00  0.00    +0.140 A 
ATOM      6  C   UNL     1     -29.866   9.075   7.204  1.00  0.00    +0.082 A 
ATOM      7  N   UNL     1     -27.604   8.687   7.732  1.00  0.00    -0.219 NA
ATOM      8  C   UNL     1     -31.110   9.568   6.781  1.00  0.00    +0.150 A 
ATOM      9  C   UNL     1     -30.138   7.802   7.682  1.00  0.00    +0.168 A 
ATOM     10  C   UNL     1     -27.983   7.472   8.165  1.00  0.00    +0.226 A 
ATOM     11  N   UNL     1     -32.109   8.711   6.979  1.00  0.00    -0.174 NA
ATOM     12  N   UNL     1     -31.513   7.608   7.534  1.00  0.00    -0.215 N 
ATOM     13  N   UNL     1     -29.218   6.952   8.185  1.00  0.00    -0.216 NA
BRANCH  12  14
ATOM     14  C   UNL     1     -32.313   6.472   7.871  1.00  0.00    +0.067 A 
ATOM     15  C   UNL     1     -33.376   6.109   7.025  1.00  0.00    +0.028 A 
ATOM     16  C   UNL     1     -32.074   5.708   9.020  1.00  0.00    +0.028 A 
ATOM     17  C   UNL     1     -34.179   5.005   7.325  1.00  0.00    +0.002 A 
ATOM     18  C   UNL     1     -32.881   4.604   9.315  1.00  0.00    +0.002 A 
ATOM     19  C   UNL     1     -33.931   4.253   8.470  1.00  0.00    +0.000 A 
ENDBRANCH  12  14
ENDBRANCH   1   5
TORSDOF 3
ENDMDL
MODEL 7
REMARK VINA RESULT:    -7.323      4.803      6.433
REMARK INTER + INTRA:          -8.658
REMARK INTER:                  -8.316
REMARK INTRA:                  -0.342
REMARK UNBOUND:                -0.050
REMARK SMILES CCNc1ncnc2c1cnn2-c1ccccc1
REMARK SMILES IDX 3 1 2 3 1 4 4 5 9 6 5 7 10 8 8 9 6 10 11 11 12 12 7 13 13 14
REMARK SMILES IDX 14 15 18 16 15 17 17 18 16 19
REMARK H PARENT 3 2
ROOT
ATOM      1  N   UNL     1     -34.770   4.237   7.298  1.00  0.00    -0.370 N 
ATOM      2  H   UNL     1     -34.499   3.537   6.617  1.00  0.00    +0.162 HD
ENDROOT
BRANCH   1   3
ATOM      3  C   UNL     1     -35.782   3.809   8.253  1.00  0.00    +0.111 C 
ATOM      4  C   UNL     1     -35.647   2.331   8.579  1.00  0.00    +0.027 C 
ENDBRANCH   1   3
BRANCH   1   5
ATOM      5  C   UNL     1     -33.714   5.011   7.765  1.00  0.00    +0.140 A 
ATOM      6  C   UNL     1     -33.186   6.080   7.025  1.00  0.00    +0.082 A 
ATOM      7  N   UNL     1     -33.164   4.761   8.977  1.00  0.00    -0.219 NA
ATOM      8  C   UNL     1     -33.437   6.695   5.789  1.00  0.00    +0.150 A 
ATOM      9  C   UNL     1     -32.133   6.801   7.568  1.00  0.00    +0.168 A 
ATOM     10  C   UNL     1     -32.147   5.530   9.404  1.00  0.00    +0.226 A 
ATOM     11  N   UNL     1     -32.617   7.712   5.533  1.00  0.00    -0.174 NA
ATOM     12  N   UNL     1     -31.806   7.788   6.636  1.00  0.00    -0.215 N 
ATOM     13  N   UNL     1     -31.568   6.558   8.769  1.00  0.00    -0.216 NA
BRANCH  12  14
ATOM     14  C   UNL     1     -30.794   8.796   6.695  1.00  0.00    +0.067 A 
ATOM     15  C   UNL     1     -31.177  10.149   6.723  1.00  0.00    +0.028 A 
ATOM     16  C   UNL     1     -29.431   8.481   6.726  1.00  0.00    +0.028 A 
ATOM     17  C   UNL     1     -30.214  11.161   6.779  1.00  0.00    +0.002 A 
ATOM     18  C   UNL     1     -28.471   9.497   6.783  1.00  0.00    +0.002 A 
ATOM     19  C   UNL     1     -28.861  10.834   6.810  1.00  0.00    +0.000 A 
ENDBRANCH  12  14
ENDBRANCH   1   5
TORSDOF 3
ENDMDL
MODEL 8
REMARK VINA RESULT:    -7.250      8.352     10.588
REMARK INTER + INTRA:          -8.571
REMARK INTER:                  -8.163
REMARK INTRA:                  -0.408
REMARK UNBOUND:                -0.050
REMARK SMILES CCNc1ncnc2c1cnn2-c1ccccc1
REMARK SMILES IDX 3 1 2 3 1 4 4 5 9 6 5 7 10 8 8 9 6 10 11 11 12 12 7 13 13 14
REMARK SMILES IDX 14 15 18 16 15 17 17 18 16 19
REMARK H PARENT 3 2
ROOT
ATOM      1  N   UNL     1     -23.429   0.977  11.640  1.00  0.00    -0.370 N 
ATOM      2  H   UNL     1     -22.720   0.458  12.143  1.00  0.00    +0.162 HD
ENDROOT
BRANCH   1   3
ATOM      3  C   UNL     1     -22.930   2.079  10.830  1.00  0.00    +0.111 C 
ATOM      4  C   UNL     1     -23.863   3.278  10.890  1.00  0.00    +0.027 C 
ENDBRANCH   1   3
BRANCH   1   5
ATOM      5  C   UNL     1     -24.445   0.186  11.113  1.00  0.00    +0.140 A 
ATOM      6  C   UNL     1     -25.790   0.363  11.469  1.00  0.00    +0.082 A 
ATOM      7  N   UNL     1     -24.160  -0.786  10.214  1.00  0.00    -0.219 NA
ATOM      8  C   UNL     1     -26.527   1.215  12.304  1.00  0.00    +0.150 A 
ATOM      9  C   UNL     1     -26.738  -0.471  10.894  1.00  0.00    +0.168 A 
ATOM     10  C   UNL     1     -25.163  -1.531   9.719  1.00  0.00    +0.226 A 
ATOM     11  N   UNL     1     -27.833   0.957  12.297  1.00  0.00    -0.174 NA
ATOM     12  N   UNL     1     -27.974  -0.086  11.418  1.00  0.00    -0.215 N 
ATOM     13  N   UNL     1     -26.470  -1.450  10.005  1.00  0.00    -0.216 NA
BRANCH  12  14
ATOM     14  C   UNL     1     -29.276  -0.618  11.163  1.00  0.00    +0.067 A 
ATOM     15  C   UNL     1     -29.900  -0.341   9.934  1.00  0.00    +0.028 A 
ATOM     16  C   UNL     1     -29.953  -1.409  12.100  1.00  0.00    +0.028 A 
ATOM     17  C   UNL     1     -31.173  -0.844   9.652  1.00  0.00    +0.002 A 
ATOM     18  C   UNL     1     -31.227  -1.910  11.812  1.00  0.00    +0.002 A 
ATOM     19  C   UNL     1     -31.836  -1.629  10.592  1.00  0.00    +0.000 A 
ENDBRANCH  12  14
ENDBRANCH   1   5
TORSDOF 3
ENDMDL
MODEL 9
REMARK VINA RESULT:    -7.165      6.847     10.395
REMARK INTER + INTRA:          -8.472
REMARK INTER:                  -8.092
REMARK INTRA:                  -0.380
REMARK UNBOUND:                -0.050
REMARK SMILES CCNc1ncnc2c1cnn2-c1ccccc1
REMARK SMILES IDX 3 1 2 3 1 4 4 5 9 6 5 7 10 8 8 9 6 10 11 11 12 12 7 13 13 14
REMARK SMILES IDX 14 15 18 16 15 17 17 18 16 19
REMARK H PARENT 3 2
ROOT
ATOM      1  N   UNL     1     -25.573   3.016   9.181  1.00  0.00    -0.370 N 
ATOM      2  H   UNL     1     -26.071   3.541   8.473  1.00  0.00    +0.162 HD
ENDROOT
BRANCH   1   3
ATOM      3  C   UNL     1     -25.092   3.802  10.308  1.00  0.00    +0.111 C 
ATOM      4  C   UNL     1     -23.975   3.085  11.047  1.00  0.00    +0.027 C 
ENDBRANCH   1   3
BRANCH   1   5
ATOM      5  C   UNL     1     -26.114   1.762   9.442  1.00  0.00    +0.140 A 
ATOM      6  C   UNL     1     -27.385   1.601  10.014  1.00  0.00    +0.082 A 
ATOM      7  N   UNL     1     -25.424   0.639   9.132  1.00  0.00    -0.219 NA
ATOM      8  C   UNL     1     -28.423   2.433  10.459  1.00  0.00    +0.150 A 
ATOM      9  C   UNL     1     -27.848   0.313  10.238  1.00  0.00    +0.168 A 
ATOM     10  C   UNL     1     -25.975  -0.559   9.391  1.00  0.00    +0.226 A 
ATOM     11  N   UNL     1     -29.463   1.760  10.947  1.00  0.00    -0.174 NA
ATOM     12  N   UNL     1     -29.116   0.441  10.809  1.00  0.00    -0.215 N 
ATOM     13  N   UNL     1     -27.168  -0.816   9.944  1.00  0.00    -0.216 NA
BRANCH  12  14
ATOM     14  C   UNL     1     -30.029  -0.573  11.236  1.00  0.00    +0.067 A 
ATOM     15  C   UNL     1     -29.783  -1.250  12.444  1.00  0.00    +0.028 A 
ATOM     16  C   UNL     1     -31.163  -0.916  10.490  1.00  0.00    +0.028 A 
ATOM     17  C   UNL     1     -30.654  -2.247  12.892  1.00  0.00    +0.002 A 
ATOM     18  C   UNL     1     -32.031  -1.915  10.943  1.00  0.00    +0.002 A 
ATOM     19  C   UNL     1     -31.778  -2.579  12.141  1.00  0.00    +0.000 A 
ENDBRANCH  12  14
ENDBRANCH   1   5
TORSDOF 3
ENDMDL
