REMARK SMILES Cc1nc(Nc2ccccc2Cl)c2cnn(-c3ccccc3Cl)c2n1
REMARK SMILES IDX 1 1 2 2 3 3 4 4 13 5 14 6 15 7 16 8 24 9 25 10 5 11 6 13
REMARK SMILES IDX 11 14 7 15 10 16 8 17 9 18 12 19 17 20 22 21 18 22 21 23
REMARK SMILES IDX 19 24 20 25 23 26
REMARK H PARENT 5 12
ROOT
ATOM      1  C   UNL     1       1.363  -2.914   2.871  1.00  0.00    +0.090 C 
ATOM      2  C   UNL     1       0.740  -2.085   1.790  1.00  0.00    +0.130 A 
ATOM      3  N   UNL     1      -0.605  -2.129   1.683  1.00  0.00    -0.215 NA
ATOM      4  C   UNL     1      -1.227  -1.388   0.735  1.00  0.00    +0.145 A 
ATOM      5  C   UNL     1      -0.436  -0.583  -0.092  1.00  0.00    +0.082 A 
ATOM      6  C   UNL     1      -0.602   0.262  -1.201  1.00  0.00    +0.150 A 
ATOM      7  N   UNL     1       0.547   0.761  -1.660  1.00  0.00    -0.174 NA
ATOM      8  N   UNL     1       1.482   0.333  -0.756  1.00  0.00    -0.213 N 
ATOM      9  C   UNL     1       0.928  -0.570   0.147  1.00  0.00    +0.168 A 
ATOM     10  N   UNL     1       1.570  -1.335   1.050  1.00  0.00    -0.213 NA
ENDROOT
BRANCH   4  11
ATOM     11  N   UNL     1      -2.632  -1.524   0.677  1.00  0.00    -0.338 N 
ATOM     12  H   UNL     1      -2.853  -1.907   1.599  1.00  0.00    +0.168 HD
BRANCH  11  13
ATOM     13  C   UNL     1      -3.518  -0.463   0.370  1.00  0.00    +0.058 A 
ATOM     14  C   UNL     1      -3.816   0.572   1.275  1.00  0.00    +0.064 A 
ATOM     15  C   UNL     1      -4.088  -0.420  -0.911  1.00  0.00    +0.027 A 
ATOM     16  C   UNL     1      -4.663   1.619   0.904  1.00  0.00    +0.023 A 
ATOM     17  C   UNL     1      -4.936   0.626  -1.280  1.00  0.00    +0.002 A 
ATOM     18  C   UNL     1      -5.221   1.646  -0.374  1.00  0.00    +0.002 A 
ATOM     19 Cl   UNL     1      -3.163   0.578   2.875  1.00  0.00    -0.082 Cl
ENDBRANCH  11  13
ENDBRANCH   4  11
BRANCH   8  20
ATOM     20  C   UNL     1       2.832   0.754  -0.899  1.00  0.00    +0.086 A 
ATOM     21  C   UNL     1       3.702   0.964   0.180  1.00  0.00    +0.066 A 
ATOM     22  C   UNL     1       3.300   0.981  -2.210  1.00  0.00    +0.030 A 
ATOM     23  C   UNL     1       5.038   1.315  -0.068  1.00  0.00    +0.023 A 
ATOM     24  C   UNL     1       4.630   1.334  -2.443  1.00  0.00    +0.002 A 
ATOM     25  C   UNL     1       5.503   1.487  -1.372  1.00  0.00    +0.002 A 
ATOM     26 Cl   UNL     1       3.212   1.037   1.838  1.00  0.00    -0.082 Cl
ENDBRANCH   8  20
TORSDOF 3
