REMARK SMILES O=C1OCc2ccccc21
REMARK SMILES IDX 1 1 2 2 3 3 4 4 5 5 10 6 9 7 8 8 7 9 6 10
REMARK H PARENT
ROOT
ATOM      1  O   UNL     1      -1.920   2.546  -0.092  1.00  0.00    -0.246 OA
ATOM      2  C   UNL     1      -1.649   1.363  -0.084  1.00  0.00    +0.338 C 
ATOM      3  O   UNL     1      -2.533   0.321  -0.139  1.00  0.00    -0.457 OA
ATOM      4  C   UNL     1      -1.866  -0.960  -0.110  1.00  0.00    +0.270 C 
ATOM      5  C   UNL     1      -0.437  -0.599  -0.028  1.00  0.00    +0.004 A 
ATOM      6  C   UNL     1      -0.318   0.776  -0.013  1.00  0.00    +0.066 A 
ATOM      7  C   UNL     1       0.905   1.418   0.059  1.00  0.00    +0.016 A 
ATOM      8  C   UNL     1       2.049   0.621   0.118  1.00  0.00    +0.001 A 
ATOM      9  C   UNL     1       1.940  -0.781   0.103  1.00  0.00    +0.000 A 
ATOM     10  C   UNL     1       0.688  -1.402   0.030  1.00  0.00    +0.008 A 
ENDROOT
TORSDOF 0
