MODEL 1
REMARK VINA RESULT:    -9.148      0.000      0.000
REMARK INTER + INTRA:          -9.235
REMARK INTER:                  -9.950
REMARK INTRA:                   0.715
REMARK UNBOUND:                 0.715
REMARK SMILES O=C1c2ccccc2C(=O)N1[C@@H]1CCCC[C@H]1O
REMARK SMILES IDX 17 1 16 2 15 3 14 4 13 5 12 6 18 7 11 9 2 10 9 11 1 12 3 13
REMARK SMILES IDX 8 14 10 15 4 16 7 17 5 18 6 19
REMARK H PARENT 18 8
ROOT
ATOM      1  C   UNL     1     -25.046   7.555   7.484  1.00  0.00    +0.137 C 
ATOM      2  C   UNL     1     -24.642   6.393   8.400  1.00  0.00    +0.034 C 
ATOM      3  C   UNL     1     -25.390   5.113   8.039  1.00  0.00    +0.003 C 
ATOM      4  C   UNL     1     -26.907   5.270   8.179  1.00  0.00    +0.002 C 
ATOM      5  C   UNL     1     -27.382   6.722   8.073  1.00  0.00    +0.028 C 
ATOM      6  C   UNL     1     -26.538   7.509   7.066  1.00  0.00    +0.123 C 
ENDROOT
BRANCH   1   7
ATOM      7  O   UNL     1     -24.212   7.506   6.318  1.00  0.00    -0.391 OA
ATOM      8  H   UNL     1     -24.774   7.641   5.526  1.00  0.00    +0.211 HD
ENDBRANCH   1   7
BRANCH   6   9
ATOM      9  N   UNL     1     -27.044   8.860   6.793  1.00  0.00    -0.269 N 
ATOM     10  C   UNL     1     -28.363   9.181   6.990  1.00  0.00    +0.261 C 
ATOM     11  C   UNL     1     -26.433   9.801   6.007  1.00  0.00    +0.261 C 
ATOM     12  O   UNL     1     -29.253   8.474   7.425  1.00  0.00    -0.269 OA
ATOM     13  C   UNL     1     -28.559  10.530   6.469  1.00  0.00    +0.053 A 
ATOM     14  C   UNL     1     -27.377  10.910   5.865  1.00  0.00    +0.053 A 
ATOM     15  O   UNL     1     -25.350   9.774   5.455  1.00  0.00    -0.269 OA
ATOM     16  C   UNL     1     -29.673  11.345   6.482  1.00  0.00    +0.015 A 
ATOM     17  C   UNL     1     -27.238  12.131   5.237  1.00  0.00    +0.015 A 
ATOM     18  C   UNL     1     -29.555  12.593   5.860  1.00  0.00    +0.001 A 
ATOM     19  C   UNL     1     -28.348  12.983   5.243  1.00  0.00    +0.001 A 
ENDBRANCH   6   9
TORSDOF 2
ENDMDL
MODEL 2
REMARK VINA RESULT:    -9.112      2.817      4.709
REMARK INTER + INTRA:          -9.196
REMARK INTER:                  -9.720
REMARK INTRA:                   0.524
REMARK UNBOUND:                 0.715
REMARK SMILES O=C1c2ccccc2C(=O)N1[C@@H]1CCCC[C@H]1O
REMARK SMILES IDX 17 1 16 2 15 3 14 4 13 5 12 6 18 7 11 9 2 10 9 11 1 12 3 13
REMARK SMILES IDX 8 14 10 15 4 16 7 17 5 18 6 19
REMARK H PARENT 18 8
ROOT
ATOM      1  C   UNL     1     -32.257   7.950   6.895  1.00  0.00    +0.137 C 
ATOM      2  C   UNL     1     -32.788   6.528   7.116  1.00  0.00    +0.034 C 
ATOM      3  C   UNL     1     -32.495   6.037   8.530  1.00  0.00    +0.003 C 
ATOM      4  C   UNL     1     -30.993   5.990   8.827  1.00  0.00    +0.002 C 
ATOM      5  C   UNL     1     -30.168   6.935   7.949  1.00  0.00    +0.028 C 
ATOM      6  C   UNL     1     -30.934   8.228   7.655  1.00  0.00    +0.123 C 
ENDROOT
BRANCH   1   7
ATOM      7  O   UNL     1     -33.269   8.870   7.326  1.00  0.00    -0.391 OA
ATOM      8  H   UNL     1     -32.831   9.670   7.686  1.00  0.00    +0.211 HD
ENDBRANCH   1   7
BRANCH   6   9
ATOM      9  N   UNL     1     -30.138   9.246   6.959  1.00  0.00    -0.269 N 
ATOM     10  C   UNL     1     -28.797   9.071   6.732  1.00  0.00    +0.261 C 
ATOM     11  C   UNL     1     -30.485  10.562   6.795  1.00  0.00    +0.261 C 
ATOM     12  O   UNL     1     -28.106   8.109   7.011  1.00  0.00    -0.269 OA
ATOM     13  C   UNL     1     -28.288  10.322   6.180  1.00  0.00    +0.053 A 
ATOM     14  C   UNL     1     -29.322  11.236   6.220  1.00  0.00    +0.053 A 
ATOM     15  O   UNL     1     -31.512  11.142   7.092  1.00  0.00    -0.269 OA
ATOM     16  C   UNL     1     -27.030  10.655   5.719  1.00  0.00    +0.015 A 
ATOM     17  C   UNL     1     -29.159  12.541   5.798  1.00  0.00    +0.015 A 
ATOM     18  C   UNL     1     -26.842  11.969   5.276  1.00  0.00    +0.001 A 
ATOM     19  C   UNL     1     -27.897  12.904   5.315  1.00  0.00    +0.001 A 
ENDBRANCH   6   9
TORSDOF 2
ENDMDL
MODEL 3
REMARK VINA RESULT:    -9.040      2.739      4.335
REMARK INTER + INTRA:          -9.118
REMARK INTER:                  -9.298
REMARK INTRA:                   0.180
REMARK UNBOUND:                 0.715
REMARK SMILES O=C1c2ccccc2C(=O)N1[C@@H]1CCCC[C@H]1O
REMARK SMILES IDX 17 1 16 2 15 3 14 4 13 5 12 6 18 7 11 9 2 10 9 11 1 12 3 13
REMARK SMILES IDX 8 14 10 15 4 16 7 17 5 18 6 19
REMARK H PARENT 18 8
ROOT
ATOM      1  C   UNL     1     -31.772   7.968   6.455  1.00  0.00    +0.137 C 
ATOM      2  C   UNL     1     -32.326   6.543   6.579  1.00  0.00    +0.034 C 
ATOM      3  C   UNL     1     -32.480   6.129   8.039  1.00  0.00    +0.003 C 
ATOM      4  C   UNL     1     -31.144   6.143   8.788  1.00  0.00    +0.002 C 
ATOM      5  C   UNL     1     -30.101   7.070   8.158  1.00  0.00    +0.028 C 
ATOM      6  C   UNL     1     -30.756   8.323   7.571  1.00  0.00    +0.123 C 
ENDROOT
BRANCH   1   7
ATOM      7  O   UNL     1     -32.882   8.876   6.500  1.00  0.00    -0.391 OA
ATOM      8  H   UNL     1     -33.309   8.891   5.618  1.00  0.00    +0.211 HD
ENDBRANCH   1   7
BRANCH   6   9
ATOM      9  N   UNL     1     -29.798   9.331   7.101  1.00  0.00    -0.269 N 
ATOM     10  C   UNL     1     -30.199  10.604   6.787  1.00  0.00    +0.261 C 
ATOM     11  C   UNL     1     -28.557   9.076   6.580  1.00  0.00    +0.261 C 
ATOM     12  O   UNL     1     -31.313  11.086   6.873  1.00  0.00    -0.269 OA
ATOM     13  C   UNL     1     -29.048  11.285   6.202  1.00  0.00    +0.053 A 
ATOM     14  C   UNL     1     -28.042  10.348   6.074  1.00  0.00    +0.053 A 
ATOM     15  O   UNL     1     -27.956   8.025   6.471  1.00  0.00    -0.269 OA
ATOM     16  C   UNL     1     -28.894  12.591   5.782  1.00  0.00    +0.015 A 
ATOM     17  C   UNL     1     -26.818  10.663   5.517  1.00  0.00    +0.015 A 
ATOM     18  C   UNL     1     -27.659  12.938   5.223  1.00  0.00    +0.001 A 
ATOM     19  C   UNL     1     -26.630  11.983   5.091  1.00  0.00    +0.001 A 
ENDBRANCH   6   9
TORSDOF 2
ENDMDL
MODEL 4
REMARK VINA RESULT:    -8.985      0.889      5.451
REMARK INTER + INTRA:          -9.058
REMARK INTER:                  -9.795
REMARK INTRA:                   0.737
REMARK UNBOUND:                 0.715
REMARK SMILES O=C1c2ccccc2C(=O)N1[C@@H]1CCCC[C@H]1O
REMARK SMILES IDX 17 1 16 2 15 3 14 4 13 5 12 6 18 7 11 9 2 10 9 11 1 12 3 13
REMARK SMILES IDX 8 14 10 15 4 16 7 17 5 18 6 19
REMARK H PARENT 18 8
ROOT
ATOM      1  C   UNL     1     -26.532  11.032   5.059  1.00  0.00    +0.137 C 
ATOM      2  C   UNL     1     -27.251  12.116   4.247  1.00  0.00    +0.034 C 
ATOM      3  C   UNL     1     -28.022  13.073   5.152  1.00  0.00    +0.003 C 
ATOM      4  C   UNL     1     -29.100  12.354   5.969  1.00  0.00    +0.002 C 
ATOM      5  C   UNL     1     -28.824  10.861   6.165  1.00  0.00    +0.028 C 
ATOM      6  C   UNL     1     -27.324  10.591   6.317  1.00  0.00    +0.123 C 
ENDROOT
BRANCH   1   7
ATOM      7  O   UNL     1     -25.252  11.549   5.447  1.00  0.00    -0.391 OA
ATOM      8  H   UNL     1     -25.317  12.525   5.514  1.00  0.00    +0.211 HD
ENDBRANCH   1   7
BRANCH   6   9
ATOM      9  N   UNL     1     -27.003   9.203   6.674  1.00  0.00    -0.269 N 
ATOM     10  C   UNL     1     -27.904   8.411   7.338  1.00  0.00    +0.261 C 
ATOM     11  C   UNL     1     -25.746   8.663   6.744  1.00  0.00    +0.261 C 
ATOM     12  O   UNL     1     -29.039   8.686   7.682  1.00  0.00    -0.269 OA
ATOM     13  C   UNL     1     -27.215   7.171   7.680  1.00  0.00    +0.053 A 
ATOM     14  C   UNL     1     -25.892   7.326   7.318  1.00  0.00    +0.053 A 
ATOM     15  O   UNL     1     -24.669   9.152   6.460  1.00  0.00    -0.269 OA
ATOM     16  C   UNL     1     -27.681   6.021   8.287  1.00  0.00    +0.015 A 
ATOM     17  C   UNL     1     -24.953   6.337   7.539  1.00  0.00    +0.015 A 
ATOM     18  C   UNL     1     -26.752   5.000   8.513  1.00  0.00    +0.001 A 
ATOM     19  C   UNL     1     -25.400   5.157   8.143  1.00  0.00    +0.001 A 
ENDBRANCH   6   9
TORSDOF 2
ENDMDL
MODEL 5
REMARK VINA RESULT:    -8.948      4.375      6.815
REMARK INTER + INTRA:          -9.018
REMARK INTER:                  -8.702
REMARK INTRA:                  -0.316
REMARK UNBOUND:                 0.715
REMARK SMILES O=C1c2ccccc2C(=O)N1[C@@H]1CCCC[C@H]1O
REMARK SMILES IDX 17 1 16 2 15 3 14 4 13 5 12 6 18 7 11 9 2 10 9 11 1 12 3 13
REMARK SMILES IDX 8 14 10 15 4 16 7 17 5 18 6 19
REMARK H PARENT 18 8
ROOT
ATOM      1  C   UNL     1     -30.952  10.207   6.857  1.00  0.00    +0.137 C 
ATOM      2  C   UNL     1     -29.916  11.261   7.265  1.00  0.00    +0.034 C 
ATOM      3  C   UNL     1     -28.689  11.220   6.359  1.00  0.00    +0.003 C 
ATOM      4  C   UNL     1     -27.976   9.866   6.414  1.00  0.00    +0.002 C 
ATOM      5  C   UNL     1     -28.884   8.714   6.853  1.00  0.00    +0.028 C 
ATOM      6  C   UNL     1     -30.309   8.900   6.324  1.00  0.00    +0.123 C 
ENDROOT
BRANCH   1   7
ATOM      7  O   UNL     1     -31.792  10.784   5.848  1.00  0.00    -0.391 OA
ATOM      8  H   UNL     1     -31.432  10.544   4.968  1.00  0.00    +0.211 HD
ENDBRANCH   1   7
BRANCH   6   9
ATOM      9  N   UNL     1     -31.189   7.751   6.568  1.00  0.00    -0.269 N 
ATOM     10  C   UNL     1     -32.199   7.428   5.697  1.00  0.00    +0.261 C 
ATOM     11  C   UNL     1     -31.375   7.124   7.772  1.00  0.00    +0.261 C 
ATOM     12  O   UNL     1     -32.488   7.969   4.646  1.00  0.00    -0.269 OA
ATOM     13  C   UNL     1     -32.973   6.356   6.315  1.00  0.00    +0.053 A 
ATOM     14  C   UNL     1     -32.469   6.171   7.587  1.00  0.00    +0.053 A 
ATOM     15  O   UNL     1     -30.823   7.304   8.839  1.00  0.00    -0.269 OA
ATOM     16  C   UNL     1     -34.044   5.629   5.835  1.00  0.00    +0.015 A 
ATOM     17  C   UNL     1     -33.008   5.243   8.457  1.00  0.00    +0.015 A 
ATOM     18  C   UNL     1     -34.601   4.676   6.694  1.00  0.00    +0.001 A 
ATOM     19  C   UNL     1     -34.088   4.485   7.994  1.00  0.00    +0.001 A 
ENDBRANCH   6   9
TORSDOF 2
ENDMDL
MODEL 6
REMARK VINA RESULT:    -8.896      4.484      6.937
REMARK INTER + INTRA:          -8.961
REMARK INTER:                  -9.330
REMARK INTRA:                   0.369
REMARK UNBOUND:                 0.715
REMARK SMILES O=C1c2ccccc2C(=O)N1[C@@H]1CCCC[C@H]1O
REMARK SMILES IDX 17 1 16 2 15 3 14 4 13 5 12 6 18 7 11 9 2 10 9 11 1 12 3 13
REMARK SMILES IDX 8 14 10 15 4 16 7 17 5 18 6 19
REMARK H PARENT 18 8
ROOT
ATOM      1  C   UNL     1     -31.004  10.093   6.982  1.00  0.00    +0.137 C 
ATOM      2  C   UNL     1     -29.870  11.069   7.319  1.00  0.00    +0.034 C 
ATOM      3  C   UNL     1     -28.609  10.757   6.519  1.00  0.00    +0.003 C 
ATOM      4  C   UNL     1     -28.074   9.351   6.807  1.00  0.00    +0.002 C 
ATOM      5  C   UNL     1     -29.142   8.387   7.330  1.00  0.00    +0.028 C 
ATOM      6  C   UNL     1     -30.500   8.659   6.678  1.00  0.00    +0.123 C 
ENDROOT
BRANCH   1   7
ATOM      7  O   UNL     1     -31.708  10.614   5.846  1.00  0.00    -0.391 OA
ATOM      8  H   UNL     1     -31.872   9.880   5.217  1.00  0.00    +0.211 HD
ENDBRANCH   1   7
BRANCH   6   9
ATOM      9  N   UNL     1     -31.529   7.665   7.009  1.00  0.00    -0.269 N 
ATOM     10  C   UNL     1     -31.362   6.784   8.046  1.00  0.00    +0.261 C 
ATOM     11  C   UNL     1     -32.534   7.244   6.178  1.00  0.00    +0.261 C 
ATOM     12  O   UNL     1     -30.430   6.707   8.826  1.00  0.00    -0.269 OA
ATOM     13  C   UNL     1     -32.475   5.842   7.993  1.00  0.00    +0.053 A 
ATOM     14  C   UNL     1     -33.193   6.122   6.847  1.00  0.00    +0.053 A 
ATOM     15  O   UNL     1     -32.846   7.633   5.070  1.00  0.00    -0.269 OA
ATOM     16  C   UNL     1     -32.818   4.807   8.840  1.00  0.00    +0.015 A 
ATOM     17  C   UNL     1     -34.300   5.383   6.480  1.00  0.00    +0.015 A 
ATOM     18  C   UNL     1     -33.942   4.049   8.495  1.00  0.00    +0.001 A 
ATOM     19  C   UNL     1     -34.677   4.334   7.326  1.00  0.00    +0.001 A 
ENDBRANCH   6   9
TORSDOF 2
ENDMDL
MODEL 7
REMARK VINA RESULT:    -8.811      1.613      6.153
REMARK INTER + INTRA:          -8.870
REMARK INTER:                  -9.196
REMARK INTRA:                   0.327
REMARK UNBOUND:                 0.715
REMARK SMILES O=C1c2ccccc2C(=O)N1[C@@H]1CCCC[C@H]1O
REMARK SMILES IDX 17 1 16 2 15 3 14 4 13 5 12 6 18 7 11 9 2 10 9 11 1 12 3 13
REMARK SMILES IDX 8 14 10 15 4 16 7 17 5 18 6 19
REMARK H PARENT 18 8
ROOT
ATOM      1  C   UNL     1     -30.843   9.136   7.306  1.00  0.00    +0.137 C 
ATOM      2  C   UNL     1     -31.774  10.336   7.515  1.00  0.00    +0.034 C 
ATOM      3  C   UNL     1     -31.487  11.448   6.510  1.00  0.00    +0.003 C 
ATOM      4  C   UNL     1     -30.056  11.981   6.630  1.00  0.00    +0.002 C 
ATOM      5  C   UNL     1     -29.083  10.980   7.259  1.00  0.00    +0.028 C 
ATOM      6  C   UNL     1     -29.420   9.545   6.845  1.00  0.00    +0.123 C 
ENDROOT
BRANCH   1   7
ATOM      7  O   UNL     1     -31.445   8.278   6.325  1.00  0.00    -0.391 OA
ATOM      8  H   UNL     1     -31.811   7.492   6.782  1.00  0.00    +0.211 HD
ENDBRANCH   1   7
BRANCH   6   9
ATOM      9  N   UNL     1     -28.428   8.552   7.276  1.00  0.00    -0.269 N 
ATOM     10  C   UNL     1     -27.190   8.479   6.690  1.00  0.00    +0.261 C 
ATOM     11  C   UNL     1     -28.692   7.409   7.983  1.00  0.00    +0.261 C 
ATOM     12  O   UNL     1     -26.729   9.188   5.815  1.00  0.00    -0.269 OA
ATOM     13  C   UNL     1     -26.529   7.296   7.229  1.00  0.00    +0.053 A 
ATOM     14  C   UNL     1     -27.450   6.639   8.021  1.00  0.00    +0.053 A 
ATOM     15  O   UNL     1     -29.736   7.013   8.467  1.00  0.00    -0.269 OA
ATOM     16  C   UNL     1     -25.254   6.807   7.025  1.00  0.00    +0.015 A 
ATOM     17  C   UNL     1     -27.150   5.450   8.657  1.00  0.00    +0.015 A 
ATOM     18  C   UNL     1     -24.922   5.610   7.667  1.00  0.00    +0.001 A 
ATOM     19  C   UNL     1     -25.861   4.937   8.476  1.00  0.00    +0.001 A 
ENDBRANCH   6   9
TORSDOF 2
ENDMDL
MODEL 8
REMARK VINA RESULT:    -8.742      8.287     10.418
REMARK INTER + INTRA:          -8.794
REMARK INTER:                  -8.461
REMARK INTRA:                  -0.333
REMARK UNBOUND:                 0.715
REMARK SMILES O=C1c2ccccc2C(=O)N1[C@@H]1CCCC[C@H]1O
REMARK SMILES IDX 17 1 16 2 15 3 14 4 13 5 12 6 18 7 11 9 2 10 9 11 1 12 3 13
REMARK SMILES IDX 8 14 10 15 4 16 7 17 5 18 6 19
REMARK H PARENT 18 8
ROOT
ATOM      1  C   UNL     1     -34.392   5.471   5.936  1.00  0.00    +0.137 C 
ATOM      2  C   UNL     1     -33.852   6.604   5.056  1.00  0.00    +0.034 C 
ATOM      3  C   UNL     1     -32.379   6.882   5.343  1.00  0.00    +0.003 C 
ATOM      4  C   UNL     1     -32.144   7.310   6.795  1.00  0.00    +0.002 C 
ATOM      5  C   UNL     1     -33.237   6.834   7.756  1.00  0.00    +0.028 C 
ATOM      6  C   UNL     1     -33.765   5.453   7.354  1.00  0.00    +0.123 C 
ENDROOT
BRANCH   1   7
ATOM      7  O   UNL     1     -34.122   4.229   5.269  1.00  0.00    -0.391 OA
ATOM      8  H   UNL     1     -34.026   3.527   5.946  1.00  0.00    +0.211 HD
ENDBRANCH   1   7
BRANCH   6   9
ATOM      9  N   UNL     1     -34.694   4.865   8.327  1.00  0.00    -0.269 N 
ATOM     10  C   UNL     1     -34.733   3.513   8.549  1.00  0.00    +0.261 C 
ATOM     11  C   UNL     1     -35.821   5.466   8.824  1.00  0.00    +0.261 C 
ATOM     12  O   UNL     1     -34.038   2.647   8.049  1.00  0.00    -0.269 OA
ATOM     13  C   UNL     1     -35.864   3.255   9.434  1.00  0.00    +0.053 A 
ATOM     14  C   UNL     1     -36.532   4.452   9.601  1.00  0.00    +0.053 A 
ATOM     15  O   UNL     1     -36.245   6.593   8.654  1.00  0.00    -0.269 OA
ATOM     16  C   UNL     1     -36.303   2.081  10.014  1.00  0.00    +0.015 A 
ATOM     17  C   UNL     1     -37.681   4.547  10.362  1.00  0.00    +0.015 A 
ATOM     18  C   UNL     1     -37.459   2.153  10.799  1.00  0.00    +0.001 A 
ATOM     19  C   UNL     1     -38.142   3.374  10.971  1.00  0.00    +0.001 A 
ENDBRANCH   6   9
TORSDOF 2
ENDMDL
MODEL 9
REMARK VINA RESULT:    -8.692      6.590      8.165
REMARK INTER + INTRA:          -8.740
REMARK INTER:                  -8.744
REMARK INTRA:                   0.004
REMARK UNBOUND:                 0.715
REMARK SMILES O=C1c2ccccc2C(=O)N1[C@@H]1CCCC[C@H]1O
REMARK SMILES IDX 17 1 16 2 15 3 14 4 13 5 12 6 18 7 11 9 2 10 9 11 1 12 3 13
REMARK SMILES IDX 8 14 10 15 4 16 7 17 5 18 6 19
REMARK H PARENT 18 8
ROOT
ATOM      1  C   UNL     1     -34.646   3.757  10.436  1.00  0.00    +0.137 C 
ATOM      2  C   UNL     1     -34.873   2.384  11.079  1.00  0.00    +0.034 C 
ATOM      3  C   UNL     1     -33.646   1.924  11.862  1.00  0.00    +0.003 C 
ATOM      4  C   UNL     1     -32.409   1.787  10.969  1.00  0.00    +0.002 C 
ATOM      5  C   UNL     1     -32.473   2.642   9.701  1.00  0.00    +0.028 C 
ATOM      6  C   UNL     1     -33.184   3.973   9.966  1.00  0.00    +0.123 C 
ENDROOT
BRANCH   1   7
ATOM      7  O   UNL     1     -35.000   4.759  11.400  1.00  0.00    -0.391 OA
ATOM      8  H   UNL     1     -34.410   5.532  11.278  1.00  0.00    +0.211 HD
ENDBRANCH   1   7
BRANCH   6   9
ATOM      9  N   UNL     1     -33.133   4.909   8.836  1.00  0.00    -0.269 N 
ATOM     10  C   UNL     1     -33.902   4.719   7.717  1.00  0.00    +0.261 C 
ATOM     11  C   UNL     1     -32.129   5.806   8.582  1.00  0.00    +0.261 C 
ATOM     12  O   UNL     1     -34.715   3.839   7.503  1.00  0.00    -0.269 OA
ATOM     13  C   UNL     1     -33.490   5.719   6.738  1.00  0.00    +0.053 A 
ATOM     14  C   UNL     1     -32.402   6.384   7.267  1.00  0.00    +0.053 A 
ATOM     15  O   UNL     1     -31.144   6.082   9.239  1.00  0.00    -0.269 OA
ATOM     16  C   UNL     1     -33.986   6.005   5.481  1.00  0.00    +0.015 A 
ATOM     17  C   UNL     1     -31.745   7.379   6.570  1.00  0.00    +0.015 A 
ATOM     18  C   UNL     1     -33.344   7.016   4.759  1.00  0.00    +0.001 A 
ATOM     19  C   UNL     1     -32.233   7.698   5.298  1.00  0.00    +0.001 A 
ENDBRANCH   6   9
TORSDOF 2
ENDMDL
