REMARK SMILES Clc1ccc2c(Cl)c3c(nc2c1)CCCC3
REMARK SMILES IDX 1 1 2 2 12 3 11 4 10 5 9 6 8 7 16 8 15 9 14 10 13 11 6 12
REMARK SMILES IDX 5 13 4 14 3 15 7 16
REMARK H PARENT
ROOT
ATOM      1 Cl   UNL     1       4.987  -2.837  -0.612  1.00  0.00    -0.084 Cl
ATOM      2  C   UNL     1       3.784  -1.639  -0.337  1.00  0.00    +0.043 A 
ATOM      3  C   UNL     1       2.437  -1.967  -0.464  1.00  0.00    +0.049 A 
ATOM      4  C   UNL     1       1.441  -1.025  -0.250  1.00  0.00    +0.073 A 
ATOM      5  N   UNL     1       0.169  -1.418  -0.397  1.00  0.00    -0.252 NA
ATOM      6  C   UNL     1      -0.834  -0.530  -0.201  1.00  0.00    +0.046 A 
ATOM      7  C   UNL     1      -0.614   0.791   0.176  1.00  0.00    -0.007 A 
ATOM      8  C   UNL     1      -1.767   1.750   0.359  1.00  0.00    +0.039 C 
ATOM      9  C   UNL     1      -3.133   1.072   0.467  1.00  0.00    +0.005 C 
ATOM     10  C   UNL     1      -3.280  -0.011  -0.591  1.00  0.00    +0.007 C 
ATOM     11  C   UNL     1      -2.224  -1.088  -0.372  1.00  0.00    +0.056 C 
ATOM     12  C   UNL     1       0.725   1.196   0.309  1.00  0.00    +0.055 A 
ATOM     13  C   UNL     1       1.795   0.289   0.104  1.00  0.00    +0.019 A 
ATOM     14  C   UNL     1       3.173   0.609   0.228  1.00  0.00    +0.013 A 
ATOM     15  C   UNL     1       4.160  -0.351   0.009  1.00  0.00    +0.021 A 
ATOM     16 Cl   UNL     1       1.069   2.854   0.721  1.00  0.00    -0.083 Cl
ENDROOT
TORSDOF 0
