MODEL 1
REMARK VINA RESULT:    -9.256      0.000      0.000
REMARK INTER + INTRA:          -9.905
REMARK INTER:                  -9.797
REMARK INTRA:                  -0.108
REMARK UNBOUND:                -0.108
REMARK SMILES CC(=O)c1ccc2c(c1)sc1ccccc12
REMARK SMILES IDX 1 1 2 2 3 3 4 4 9 5 5 6 8 7 6 8 7 9 10 10 16 11 11 12 15 13
REMARK SMILES IDX 12 14 14 15 13 16
REMARK H PARENT
ROOT
ATOM      1  C   UNL     1     -27.255   3.935   9.105  1.00  0.00    +0.093 C 
ATOM      2  C   UNL     1     -26.311   4.883   8.412  1.00  0.00    +0.159 C 
ATOM      3  O   UNL     1     -25.136   4.577   8.217  1.00  0.00    -0.295 OA
ENDROOT
BRANCH   2   4
ATOM      4  C   UNL     1     -26.819   6.213   7.959  1.00  0.00    +0.019 A 
ATOM      5  C   UNL     1     -26.047   7.069   7.164  1.00  0.00    +0.031 A 
ATOM      6  C   UNL     1     -28.101   6.598   8.347  1.00  0.00    +0.012 A 
ATOM      7  C   UNL     1     -26.587   8.314   6.770  1.00  0.00    +0.036 A 
ATOM      8  C   UNL     1     -28.627   7.833   7.951  1.00  0.00    +0.011 A 
ATOM      9  C   UNL     1     -27.867   8.719   7.147  1.00  0.00    +0.000 A 
ATOM     10  S   UNL     1     -25.812   9.501   5.803  1.00  0.00    -0.135 S 
ATOM     11  C   UNL     1     -28.197  10.031   6.622  1.00  0.00    +0.000 A 
ATOM     12  C   UNL     1     -27.153  10.568   5.867  1.00  0.00    +0.035 A 
ATOM     13  C   UNL     1     -29.377  10.809   6.760  1.00  0.00    +0.010 A 
ATOM     14  C   UNL     1     -27.252  11.835   5.259  1.00  0.00    +0.019 A 
ATOM     15  C   UNL     1     -29.481  12.067   6.160  1.00  0.00    +0.001 A 
ATOM     16  C   UNL     1     -28.426  12.574   5.416  1.00  0.00    +0.002 A 
ENDBRANCH   2   4
TORSDOF 1
ENDMDL
MODEL 2
REMARK VINA RESULT:    -8.938      1.163      2.056
REMARK INTER + INTRA:          -9.569
REMARK INTER:                  -9.490
REMARK INTRA:                  -0.079
REMARK UNBOUND:                -0.108
REMARK SMILES CC(=O)c1ccc2c(c1)sc1ccccc12
REMARK SMILES IDX 1 1 2 2 3 3 4 4 9 5 5 6 8 7 6 8 7 9 10 10 16 11 11 12 15 13
REMARK SMILES IDX 12 14 14 15 13 16
REMARK H PARENT
ROOT
ATOM      1  C   UNL     1     -27.336   4.144   8.434  1.00  0.00    +0.093 C 
ATOM      2  C   UNL     1     -26.203   5.113   8.219  1.00  0.00    +0.159 C 
ATOM      3  O   UNL     1     -25.043   4.802   8.483  1.00  0.00    -0.295 OA
ENDROOT
BRANCH   2   4
ATOM      4  C   UNL     1     -26.504   6.473   7.675  1.00  0.00    +0.019 A 
ATOM      5  C   UNL     1     -27.749   7.086   7.863  1.00  0.00    +0.031 A 
ATOM      6  C   UNL     1     -25.506   7.135   6.963  1.00  0.00    +0.012 A 
ATOM      7  C   UNL     1     -27.969   8.373   7.323  1.00  0.00    +0.036 A 
ATOM      8  C   UNL     1     -25.734   8.410   6.432  1.00  0.00    +0.011 A 
ATOM      9  C   UNL     1     -26.985   9.054   6.607  1.00  0.00    +0.000 A 
ATOM     10  S   UNL     1     -29.412   9.294   7.438  1.00  0.00    -0.135 S 
ATOM     11  C   UNL     1     -27.445  10.354   6.155  1.00  0.00    +0.000 A 
ATOM     12  C   UNL     1     -28.761  10.606   6.546  1.00  0.00    +0.035 A 
ATOM     13  C   UNL     1     -26.778  11.358   5.406  1.00  0.00    +0.010 A 
ATOM     14  C   UNL     1     -29.417  11.809   6.216  1.00  0.00    +0.019 A 
ATOM     15  C   UNL     1     -27.422  12.554   5.076  1.00  0.00    +0.001 A 
ATOM     16  C   UNL     1     -28.730  12.775   5.478  1.00  0.00    +0.002 A 
ENDBRANCH   2   4
TORSDOF 1
ENDMDL
MODEL 3
REMARK VINA RESULT:    -8.502      3.304      3.945
REMARK INTER + INTRA:          -9.107
REMARK INTER:                  -9.030
REMARK INTRA:                  -0.077
REMARK UNBOUND:                -0.108
REMARK SMILES CC(=O)c1ccc2c(c1)sc1ccccc12
REMARK SMILES IDX 1 1 2 2 3 3 4 4 9 5 5 6 8 7 6 8 7 9 10 10 16 11 11 12 15 13
REMARK SMILES IDX 12 14 14 15 13 16
REMARK H PARENT
ROOT
ATOM      1  C   UNL     1     -31.854   5.781   9.234  1.00  0.00    +0.093 C 
ATOM      2  C   UNL     1     -32.374   6.620   8.096  1.00  0.00    +0.159 C 
ATOM      3  O   UNL     1     -33.462   6.380   7.577  1.00  0.00    -0.295 OA
ENDROOT
BRANCH   2   4
ATOM      4  C   UNL     1     -31.547   7.761   7.599  1.00  0.00    +0.019 A 
ATOM      5  C   UNL     1     -30.167   7.641   7.394  1.00  0.00    +0.031 A 
ATOM      6  C   UNL     1     -32.183   8.973   7.335  1.00  0.00    +0.012 A 
ATOM      7  C   UNL     1     -29.443   8.759   6.922  1.00  0.00    +0.036 A 
ATOM      8  C   UNL     1     -31.456  10.075   6.868  1.00  0.00    +0.011 A 
ATOM      9  C   UNL     1     -30.059   9.980   6.652  1.00  0.00    +0.000 A 
ATOM     10  S   UNL     1     -27.757   8.822   6.607  1.00  0.00    -0.135 S 
ATOM     11  C   UNL     1     -29.111  10.972   6.179  1.00  0.00    +0.000 A 
ATOM     12  C   UNL     1     -27.813  10.462   6.109  1.00  0.00    +0.035 A 
ATOM     13  C   UNL     1     -29.308  12.325   5.795  1.00  0.00    +0.010 A 
ATOM     14  C   UNL     1     -26.728  11.250   5.676  1.00  0.00    +0.019 A 
ATOM     15  C   UNL     1     -28.235  13.111   5.364  1.00  0.00    +0.001 A 
ATOM     16  C   UNL     1     -26.957  12.576   5.307  1.00  0.00    +0.002 A 
ENDBRANCH   2   4
TORSDOF 1
ENDMDL
MODEL 4
REMARK VINA RESULT:    -8.115      2.762      3.770
REMARK INTER + INTRA:          -8.697
REMARK INTER:                  -8.619
REMARK INTRA:                  -0.078
REMARK UNBOUND:                -0.108
REMARK SMILES CC(=O)c1ccc2c(c1)sc1ccccc12
REMARK SMILES IDX 1 1 2 2 3 3 4 4 9 5 5 6 8 7 6 8 7 9 10 10 16 11 11 12 15 13
REMARK SMILES IDX 12 14 14 15 13 16
REMARK H PARENT
ROOT
ATOM      1  C   UNL     1     -32.985   6.027   8.052  1.00  0.00    +0.093 C 
ATOM      2  C   UNL     1     -31.573   6.210   8.545  1.00  0.00    +0.159 C 
ATOM      3  O   UNL     1     -31.102   5.472   9.408  1.00  0.00    -0.295 OA
ENDROOT
BRANCH   2   4
ATOM      4  C   UNL     1     -30.740   7.310   7.970  1.00  0.00    +0.019 A 
ATOM      5  C   UNL     1     -31.302   8.522   7.552  1.00  0.00    +0.031 A 
ATOM      6  C   UNL     1     -29.366   7.107   7.854  1.00  0.00    +0.012 A 
ATOM      7  C   UNL     1     -30.458   9.521   7.016  1.00  0.00    +0.036 A 
ATOM      8  C   UNL     1     -28.539   8.103   7.323  1.00  0.00    +0.011 A 
ATOM      9  C   UNL     1     -29.082   9.340   6.891  1.00  0.00    +0.000 A 
ATOM     10  S   UNL     1     -30.942  11.067   6.449  1.00  0.00    -0.135 S 
ATOM     11  C   UNL     1     -28.431  10.503   6.316  1.00  0.00    +0.000 A 
ATOM     12  C   UNL     1     -29.342  11.521   6.029  1.00  0.00    +0.035 A 
ATOM     13  C   UNL     1     -27.064  10.741   6.019  1.00  0.00    +0.010 A 
ATOM     14  C   UNL     1     -28.934  12.745   5.464  1.00  0.00    +0.019 A 
ATOM     15  C   UNL     1     -26.652  11.954   5.459  1.00  0.00    +0.001 A 
ATOM     16  C   UNL     1     -27.581  12.945   5.184  1.00  0.00    +0.002 A 
ENDBRANCH   2   4
TORSDOF 1
ENDMDL
MODEL 5
REMARK VINA RESULT:    -7.499      5.331      9.639
REMARK INTER + INTRA:          -8.045
REMARK INTER:                  -7.967
REMARK INTRA:                  -0.078
REMARK UNBOUND:                -0.108
REMARK SMILES CC(=O)c1ccc2c(c1)sc1ccccc12
REMARK SMILES IDX 1 1 2 2 3 3 4 4 9 5 5 6 8 7 6 8 7 9 10 10 16 11 11 12 15 13
REMARK SMILES IDX 12 14 14 15 13 16
REMARK H PARENT
ROOT
ATOM      1  C   UNL     1     -26.439   5.257   8.466  1.00  0.00    +0.093 C 
ATOM      2  C   UNL     1     -25.718   4.615   9.623  1.00  0.00    +0.159 C 
ATOM      3  O   UNL     1     -24.510   4.777   9.786  1.00  0.00    -0.295 OA
ENDROOT
BRANCH   2   4
ATOM      4  C   UNL     1     -26.492   3.769  10.582  1.00  0.00    +0.019 A 
ATOM      5  C   UNL     1     -27.538   2.939  10.159  1.00  0.00    +0.031 A 
ATOM      6  C   UNL     1     -26.150   3.818  11.932  1.00  0.00    +0.012 A 
ATOM      7  C   UNL     1     -28.231   2.165  11.117  1.00  0.00    +0.036 A 
ATOM      8  C   UNL     1     -26.843   3.047  12.873  1.00  0.00    +0.011 A 
ATOM      9  C   UNL     1     -27.906   2.199  12.472  1.00  0.00    +0.000 A 
ATOM     10  S   UNL     1     -29.534   1.092  10.810  1.00  0.00    -0.135 S 
ATOM     11  C   UNL     1     -28.755   1.321  13.256  1.00  0.00    +0.000 A 
ATOM     12  C   UNL     1     -29.690   0.655  12.461  1.00  0.00    +0.035 A 
ATOM     13  C   UNL     1     -28.768   1.055  14.650  1.00  0.00    +0.010 A 
ATOM     14  C   UNL     1     -30.620  -0.250  13.010  1.00  0.00    +0.019 A 
ATOM     15  C   UNL     1     -29.688   0.157  15.201  1.00  0.00    +0.001 A 
ATOM     16  C   UNL     1     -30.605  -0.488  14.386  1.00  0.00    +0.002 A 
ENDBRANCH   2   4
TORSDOF 1
ENDMDL
MODEL 6
REMARK VINA RESULT:    -7.144      8.833     10.240
REMARK INTER + INTRA:          -7.670
REMARK INTER:                  -7.575
REMARK INTRA:                  -0.094
REMARK UNBOUND:                -0.108
REMARK SMILES CC(=O)c1ccc2c(c1)sc1ccccc12
REMARK SMILES IDX 1 1 2 2 3 3 4 4 9 5 5 6 8 7 6 8 7 9 10 10 16 11 11 12 15 13
REMARK SMILES IDX 12 14 14 15 13 16
REMARK H PARENT
ROOT
ATOM      1  C   UNL     1     -29.954   0.707  10.815  1.00  0.00    +0.093 C 
ATOM      2  C   UNL     1     -31.176   0.487   9.962  1.00  0.00    +0.159 C 
ATOM      3  O   UNL     1     -31.221  -0.428   9.141  1.00  0.00    -0.295 OA
ENDROOT
BRANCH   2   4
ATOM      4  C   UNL     1     -32.348   1.401  10.122  1.00  0.00    +0.019 A 
ATOM      5  C   UNL     1     -33.643   0.913  10.337  1.00  0.00    +0.031 A 
ATOM      6  C   UNL     1     -32.129   2.775  10.053  1.00  0.00    +0.012 A 
ATOM      7  C   UNL     1     -34.708   1.831  10.480  1.00  0.00    +0.036 A 
ATOM      8  C   UNL     1     -33.191   3.676  10.197  1.00  0.00    +0.011 A 
ATOM      9  C   UNL     1     -34.511   3.209  10.415  1.00  0.00    +0.000 A 
ATOM     10  S   UNL     1     -36.358   1.443  10.747  1.00  0.00    -0.135 S 
ATOM     11  C   UNL     1     -35.751   3.943  10.590  1.00  0.00    +0.000 A 
ATOM     12  C   UNL     1     -36.839   3.089  10.782  1.00  0.00    +0.035 A 
ATOM     13  C   UNL     1     -36.002   5.340  10.595  1.00  0.00    +0.010 A 
ATOM     14  C   UNL     1     -38.145   3.582  10.973  1.00  0.00    +0.019 A 
ATOM     15  C   UNL     1     -37.296   5.835  10.785  1.00  0.00    +0.001 A 
ATOM     16  C   UNL     1     -38.356   4.962  10.971  1.00  0.00    +0.002 A 
ENDBRANCH   2   4
TORSDOF 1
ENDMDL
MODEL 7
REMARK VINA RESULT:    -7.072      8.659      9.915
REMARK INTER + INTRA:          -7.594
REMARK INTER:                  -7.516
REMARK INTRA:                  -0.078
REMARK UNBOUND:                -0.108
REMARK SMILES CC(=O)c1ccc2c(c1)sc1ccccc12
REMARK SMILES IDX 1 1 2 2 3 3 4 4 9 5 5 6 8 7 6 8 7 9 10 10 16 11 11 12 15 13
REMARK SMILES IDX 12 14 14 15 13 16
REMARK H PARENT
ROOT
ATOM      1  C   UNL     1     -30.318   1.374  10.836  1.00  0.00    +0.093 C 
ATOM      2  C   UNL     1     -31.499   0.881  10.040  1.00  0.00    +0.159 C 
ATOM      3  O   UNL     1     -31.415  -0.123   9.336  1.00  0.00    -0.295 OA
ENDROOT
BRANCH   2   4
ATOM      4  C   UNL     1     -32.789   1.633  10.115  1.00  0.00    +0.019 A 
ATOM      5  C   UNL     1     -32.967   2.863   9.471  1.00  0.00    +0.031 A 
ATOM      6  C   UNL     1     -33.835   1.079  10.852  1.00  0.00    +0.012 A 
ATOM      7  C   UNL     1     -34.212   3.523   9.582  1.00  0.00    +0.036 A 
ATOM      8  C   UNL     1     -35.064   1.741  10.955  1.00  0.00    +0.011 A 
ATOM      9  C   UNL     1     -35.271   2.987  10.313  1.00  0.00    +0.000 A 
ATOM     10  S   UNL     1     -34.634   5.028   8.874  1.00  0.00    -0.135 S 
ATOM     11  C   UNL     1     -36.441   3.845  10.279  1.00  0.00    +0.000 A 
ATOM     12  C   UNL     1     -36.221   4.997   9.522  1.00  0.00    +0.035 A 
ATOM     13  C   UNL     1     -37.718   3.685  10.878  1.00  0.00    +0.010 A 
ATOM     14  C   UNL     1     -37.222   5.975   9.351  1.00  0.00    +0.019 A 
ATOM     15  C   UNL     1     -38.715   4.652  10.712  1.00  0.00    +0.001 A 
ATOM     16  C   UNL     1     -38.466   5.786   9.955  1.00  0.00    +0.002 A 
ENDBRANCH   2   4
TORSDOF 1
ENDMDL
MODEL 8
REMARK VINA RESULT:    -7.062      4.481      5.414
REMARK INTER + INTRA:          -7.583
REMARK INTER:                  -7.475
REMARK INTRA:                  -0.108
REMARK UNBOUND:                -0.108
REMARK SMILES CC(=O)c1ccc2c(c1)sc1ccccc12
REMARK SMILES IDX 1 1 2 2 3 3 4 4 9 5 5 6 8 7 6 8 7 9 10 10 16 11 11 12 15 13
REMARK SMILES IDX 12 14 14 15 13 16
REMARK H PARENT
ROOT
ATOM      1  C   UNL     1     -33.918   3.271   9.736  1.00  0.00    +0.093 C 
ATOM      2  C   UNL     1     -34.140   4.497   8.888  1.00  0.00    +0.159 C 
ATOM      3  O   UNL     1     -35.257   4.777   8.458  1.00  0.00    -0.295 OA
ENDROOT
BRANCH   2   4
ATOM      4  C   UNL     1     -32.977   5.380   8.570  1.00  0.00    +0.019 A 
ATOM      5  C   UNL     1     -33.133   6.591   7.885  1.00  0.00    +0.031 A 
ATOM      6  C   UNL     1     -31.707   4.973   8.975  1.00  0.00    +0.012 A 
ATOM      7  C   UNL     1     -31.992   7.380   7.615  1.00  0.00    +0.036 A 
ATOM      8  C   UNL     1     -30.583   5.762   8.703  1.00  0.00    +0.011 A 
ATOM      9  C   UNL     1     -30.713   6.991   8.011  1.00  0.00    +0.000 A 
ATOM     10  S   UNL     1     -31.965   8.886   6.793  1.00  0.00    -0.135 S 
ATOM     11  C   UNL     1     -29.707   7.963   7.622  1.00  0.00    +0.000 A 
ATOM     12  C   UNL     1     -30.265   9.049   6.947  1.00  0.00    +0.035 A 
ATOM     13  C   UNL     1     -28.302   7.964   7.822  1.00  0.00    +0.010 A 
ATOM     14  C   UNL     1     -29.475  10.116   6.475  1.00  0.00    +0.019 A 
ATOM     15  C   UNL     1     -27.512   9.019   7.357  1.00  0.00    +0.001 A 
ATOM     16  C   UNL     1     -28.095  10.085   6.688  1.00  0.00    +0.002 A 
ENDBRANCH   2   4
TORSDOF 1
ENDMDL
MODEL 9
REMARK VINA RESULT:    -6.980      9.356      9.948
REMARK INTER + INTRA:          -7.496
REMARK INTER:                  -7.420
REMARK INTRA:                  -0.077
REMARK UNBOUND:                -0.108
REMARK SMILES CC(=O)c1ccc2c(c1)sc1ccccc12
REMARK SMILES IDX 1 1 2 2 3 3 4 4 9 5 5 6 8 7 6 8 7 9 10 10 16 11 11 12 15 13
REMARK SMILES IDX 12 14 14 15 13 16
REMARK H PARENT
ROOT
ATOM      1  C   UNL     1     -22.956   2.002  11.095  1.00  0.00    +0.093 C 
ATOM      2  C   UNL     1     -23.524   0.608  11.011  1.00  0.00    +0.159 C 
ATOM      3  O   UNL     1     -22.789  -0.378  11.037  1.00  0.00    -0.295 OA
ENDROOT
BRANCH   2   4
ATOM      4  C   UNL     1     -25.003   0.432  10.895  1.00  0.00    +0.019 A 
ATOM      5  C   UNL     1     -25.890   1.001  11.817  1.00  0.00    +0.031 A 
ATOM      6  C   UNL     1     -25.498  -0.322   9.833  1.00  0.00    +0.012 A 
ATOM      7  C   UNL     1     -27.278   0.796  11.651  1.00  0.00    +0.036 A 
ATOM      8  C   UNL     1     -26.875  -0.519   9.677  1.00  0.00    +0.011 A 
ATOM      9  C   UNL     1     -27.795   0.045  10.596  1.00  0.00    +0.000 A 
ATOM     10  S   UNL     1     -28.527   1.401  12.662  1.00  0.00    -0.135 S 
ATOM     11  C   UNL     1     -29.244  -0.023  10.638  1.00  0.00    +0.000 A 
ATOM     12  C   UNL     1     -29.768   0.681  11.723  1.00  0.00    +0.035 A 
ATOM     13  C   UNL     1     -30.161  -0.673   9.770  1.00  0.00    +0.010 A 
ATOM     14  C   UNL     1     -31.155   0.752  11.963  1.00  0.00    +0.019 A 
ATOM     15  C   UNL     1     -31.538  -0.606  10.002  1.00  0.00    +0.001 A 
ATOM     16  C   UNL     1     -32.028   0.101  11.090  1.00  0.00    +0.002 A 
ENDBRANCH   2   4
TORSDOF 1
ENDMDL
