REMARK SMILES Oc1ccccc1C=Nc1ccc(N=Cc2ccccc2O)cc1
REMARK SMILES IDX 10 1 11 2 12 3 13 4 23 5 24 6 9 7 8 8 7 9 2 10 3 11 6 12
REMARK SMILES IDX 4 13 5 14 1 15 14 17 15 18 16 19 21 20 17 21 20 22 18 23
REMARK SMILES IDX 19 24 22 25
REMARK H PARENT 1 16 22 26
ROOT
ATOM      1  C   UNL     1      -0.742   1.135   0.703  1.00  0.00    +0.063 A 
ATOM      2  C   UNL     1      -0.259   1.119  -0.607  1.00  0.00    +0.030 A 
ATOM      3  C   UNL     1       0.439   0.009  -1.092  1.00  0.00    +0.030 A 
ATOM      4  C   UNL     1       0.694  -1.084  -0.259  1.00  0.00    +0.063 A 
ATOM      5  C   UNL     1       0.210  -1.068   1.051  1.00  0.00    +0.030 A 
ATOM      6  C   UNL     1      -0.485   0.043   1.536  1.00  0.00    +0.030 A 
ENDROOT
BRANCH   1   7
ATOM      7  N   UNL     1      -1.417   2.269   1.170  1.00  0.00    -0.256 NA
ATOM      8  C   UNL     1      -2.666   2.227   1.536  1.00  0.00    +0.123 C 
BRANCH   8   9
ATOM      9  C   UNL     1      -3.642   1.117   1.461  1.00  0.00    +0.035 A 
ATOM     10  C   UNL     1      -4.526   0.920   2.528  1.00  0.00    +0.124 A 
ATOM     11  C   UNL     1      -5.474  -0.103   2.480  1.00  0.00    +0.047 A 
ATOM     12  C   UNL     1      -3.738   0.305   0.327  1.00  0.00    +0.013 A 
ATOM     13  C   UNL     1      -5.548  -0.925   1.355  1.00  0.00    +0.004 A 
ATOM     14  C   UNL     1      -4.684  -0.721   0.279  1.00  0.00    +0.001 A 
BRANCH  10  15
ATOM     15  O   UNL     1      -4.455   1.726   3.630  1.00  0.00    -0.507 OA
ATOM     16  H   UNL     1      -5.067   1.394   4.308  1.00  0.00    +0.293 HD
ENDBRANCH  10  15
ENDBRANCH   8   9
ENDBRANCH   1   7
BRANCH   4  17
ATOM     17  N   UNL     1       1.365  -2.217  -0.727  1.00  0.00    -0.256 NA
ATOM     18  C   UNL     1       2.623  -2.191  -1.062  1.00  0.00    +0.123 C 
BRANCH  18  19
ATOM     19  C   UNL     1       3.623  -1.103  -0.954  1.00  0.00    +0.035 A 
ATOM     20  C   UNL     1       4.576  -0.962  -1.970  1.00  0.00    +0.124 A 
ATOM     21  C   UNL     1       3.681  -0.264   0.162  1.00  0.00    +0.013 A 
ATOM     22  C   UNL     1       5.556   0.029  -1.889  1.00  0.00    +0.047 A 
ATOM     23  C   UNL     1       4.659   0.730   0.243  1.00  0.00    +0.001 A 
ATOM     24  C   UNL     1       5.592   0.878  -0.782  1.00  0.00    +0.004 A 
BRANCH  20  25
ATOM     25  O   UNL     1       4.544  -1.793  -3.056  1.00  0.00    -0.507 OA
ATOM     26  H   UNL     1       5.242  -1.531  -3.679  1.00  0.00    +0.293 HD
ENDBRANCH  20  25
ENDBRANCH  18  19
ENDBRANCH   4  17
TORSDOF 6
