MODEL 1
REMARK VINA RESULT:   -13.570      0.000      0.000
REMARK INTER + INTRA:         -15.701
REMARK INTER:                 -15.156
REMARK INTRA:                  -0.545
REMARK UNBOUND:                -0.545
REMARK SMILES N=C(Nc1cc2ccccc2c2ccccc12)Nc1cc2ccccc2c2ccccc12
REMARK SMILES IDX 1 1 2 2 3 3 18 4 4 8 17 9 5 10 16 11 12 12 6 13 15 14 13 15
REMARK SMILES IDX 11 16 7 17 14 18 10 19 8 20 9 21 19 22 32 23 20 24 31 25
REMARK SMILES IDX 27 26 21 27 30 28 28 29 26 30 22 31 29 32 25 33 23 34 24 35
REMARK H PARENT 1 5 3 6 18 7
ROOT
ATOM      1  N   UNL     1     -32.524   5.890   7.100  1.00  0.00    -0.269 NA
ATOM      2  C   UNL     1     -32.446   6.485   8.243  1.00  0.00    +0.197 C 
ATOM      3  N   UNL     1     -32.998   6.078   9.429  1.00  0.00    -0.326 N 
ATOM      4  N   UNL     1     -31.788   7.677   8.392  1.00  0.00    -0.326 N 
ATOM      5  H   UNL     1     -32.045   6.482   6.413  1.00  0.00    +0.191 HD
ATOM      6  H   UNL     1     -32.402   6.293  10.213  1.00  0.00    +0.170 HD
ATOM      7  H   UNL     1     -32.067   8.229   9.192  1.00  0.00    +0.170 HD
ENDROOT
BRANCH   3   8
ATOM      8  C   UNL     1     -33.821   4.946   9.711  1.00  0.00    +0.049 A 
ATOM      9  C   UNL     1     -33.238   3.642   9.811  1.00  0.00    +0.006 A 
ATOM     10  C   UNL     1     -35.181   5.091  10.005  1.00  0.00    +0.035 A 
ATOM     11  C   UNL     1     -31.844   3.410   9.640  1.00  0.00    +0.011 A 
ATOM     12  C   UNL     1     -34.068   2.516  10.097  1.00  0.00    -0.008 A 
ATOM     13  C   UNL     1     -36.010   4.004  10.294  1.00  0.00    -0.016 A 
ATOM     14  C   UNL     1     -31.276   2.138   9.709  1.00  0.00    +0.001 A 
ATOM     15  C   UNL     1     -33.451   1.238  10.152  1.00  0.00    +0.009 A 
ATOM     16  C   UNL     1     -35.475   2.698  10.332  1.00  0.00    -0.010 A 
ATOM     17  C   UNL     1     -37.377   4.230  10.541  1.00  0.00    +0.009 A 
ATOM     18  C   UNL     1     -32.084   1.048   9.958  1.00  0.00    +0.001 A 
ATOM     19  C   UNL     1     -36.393   1.651  10.621  1.00  0.00    +0.009 A 
ATOM     20  C   UNL     1     -38.244   3.179  10.822  1.00  0.00    +0.001 A 
ATOM     21  C   UNL     1     -37.752   1.885  10.861  1.00  0.00    +0.001 A 
ENDBRANCH   3   8
BRANCH   4  22
ATOM     22  C   UNL     1     -30.467   7.981   7.961  1.00  0.00    +0.049 A 
ATOM     23  C   UNL     1     -30.187   9.226   7.333  1.00  0.00    +0.006 A 
ATOM     24  C   UNL     1     -29.437   7.046   8.118  1.00  0.00    +0.035 A 
ATOM     25  C   UNL     1     -31.205  10.180   7.079  1.00  0.00    +0.011 A 
ATOM     26  C   UNL     1     -28.854   9.527   6.930  1.00  0.00    -0.008 A 
ATOM     27  C   UNL     1     -28.125   7.315   7.722  1.00  0.00    -0.016 A 
ATOM     28  C   UNL     1     -30.939  11.411   6.482  1.00  0.00    +0.001 A 
ATOM     29  C   UNL     1     -28.625  10.793   6.330  1.00  0.00    +0.009 A 
ATOM     30  C   UNL     1     -27.808   8.558   7.130  1.00  0.00    -0.010 A 
ATOM     31  C   UNL     1     -27.133   6.339   7.924  1.00  0.00    +0.009 A 
ATOM     32  C   UNL     1     -29.645  11.720   6.113  1.00  0.00    +0.001 A 
ATOM     33  C   UNL     1     -26.448   8.753   6.767  1.00  0.00    +0.009 A 
ATOM     34  C   UNL     1     -25.812   6.567   7.552  1.00  0.00    +0.001 A 
ATOM     35  C   UNL     1     -25.468   7.778   6.973  1.00  0.00    +0.001 A 
ENDBRANCH   4  22
TORSDOF 2
ENDMDL
MODEL 2
REMARK VINA RESULT:   -13.569      1.215      4.126
REMARK INTER + INTRA:         -15.701
REMARK INTER:                 -15.690
REMARK INTRA:                  -0.011
REMARK UNBOUND:                -0.545
REMARK SMILES N=C(Nc1cc2ccccc2c2ccccc12)Nc1cc2ccccc2c2ccccc12
REMARK SMILES IDX 1 1 2 2 3 3 18 4 4 8 17 9 5 10 16 11 12 12 6 13 15 14 13 15
REMARK SMILES IDX 11 16 7 17 14 18 10 19 8 20 9 21 19 22 32 23 20 24 31 25
REMARK SMILES IDX 27 26 21 27 30 28 28 29 26 30 22 31 29 32 25 33 23 34 24 35
REMARK H PARENT 1 5 3 6 18 7
ROOT
ATOM      1  N   UNL     1     -31.913   6.643   6.521  1.00  0.00    -0.269 NA
ATOM      2  C   UNL     1     -31.869   7.186   7.691  1.00  0.00    +0.197 C 
ATOM      3  N   UNL     1     -32.181   6.599   8.890  1.00  0.00    -0.326 N 
ATOM      4  N   UNL     1     -31.515   8.497   7.865  1.00  0.00    -0.326 N 
ATOM      5  H   UNL     1     -31.667   7.367   5.837  1.00  0.00    +0.191 HD
ATOM      6  H   UNL     1     -31.580   6.923   9.632  1.00  0.00    +0.170 HD
ATOM      7  H   UNL     1     -31.839   8.924   8.723  1.00  0.00    +0.170 HD
ENDROOT
BRANCH   3   8
ATOM      8  C   UNL     1     -32.665   5.285   9.163  1.00  0.00    +0.049 A 
ATOM      9  C   UNL     1     -34.066   5.004   9.076  1.00  0.00    +0.006 A 
ATOM     10  C   UNL     1     -31.788   4.222   9.407  1.00  0.00    +0.035 A 
ATOM     11  C   UNL     1     -35.027   5.993   8.723  1.00  0.00    +0.011 A 
ATOM     12  C   UNL     1     -34.542   3.685   9.347  1.00  0.00    -0.008 A 
ATOM     13  C   UNL     1     -32.231   2.924   9.668  1.00  0.00    -0.016 A 
ATOM     14  C   UNL     1     -36.395   5.731   8.665  1.00  0.00    +0.001 A 
ATOM     15  C   UNL     1     -35.943   3.461   9.284  1.00  0.00    +0.009 A 
ATOM     16  C   UNL     1     -33.611   2.632   9.657  1.00  0.00    -0.010 A 
ATOM     17  C   UNL     1     -31.285   1.919   9.943  1.00  0.00    +0.009 A 
ATOM     18  C   UNL     1     -36.855   4.463   8.954  1.00  0.00    +0.001 A 
ATOM     19  C   UNL     1     -33.972   1.287   9.946  1.00  0.00    +0.009 A 
ATOM     20  C   UNL     1     -31.677   0.613  10.220  1.00  0.00    +0.001 A 
ATOM     21  C   UNL     1     -33.025   0.296  10.222  1.00  0.00    +0.001 A 
ENDBRANCH   3   8
BRANCH   4  22
ATOM     22  C   UNL     1     -30.360   9.145   7.343  1.00  0.00    +0.049 A 
ATOM     23  C   UNL     1     -29.091   8.507   7.405  1.00  0.00    +0.006 A 
ATOM     24  C   UNL     1     -30.455  10.432   6.799  1.00  0.00    +0.035 A 
ATOM     25  C   UNL     1     -28.922   7.237   8.013  1.00  0.00    +0.011 A 
ATOM     26  C   UNL     1     -27.949   9.158   6.856  1.00  0.00    -0.008 A 
ATOM     27  C   UNL     1     -29.347  11.093   6.265  1.00  0.00    -0.016 A 
ATOM     28  C   UNL     1     -27.688   6.593   8.062  1.00  0.00    +0.001 A 
ATOM     29  C   UNL     1     -26.711   8.465   6.922  1.00  0.00    +0.009 A 
ATOM     30  C   UNL     1     -28.079  10.468   6.275  1.00  0.00    -0.010 A 
ATOM     31  C   UNL     1     -29.513  12.377   5.716  1.00  0.00    +0.009 A 
ATOM     32  C   UNL     1     -26.581   7.206   7.509  1.00  0.00    +0.001 A 
ATOM     33  C   UNL     1     -27.010  11.207   5.702  1.00  0.00    +0.009 A 
ATOM     34  C   UNL     1     -28.439  13.069   5.165  1.00  0.00    +0.001 A 
ATOM     35  C   UNL     1     -27.184  12.482   5.157  1.00  0.00    +0.001 A 
ENDBRANCH   4  22
TORSDOF 2
ENDMDL
MODEL 3
REMARK VINA RESULT:   -13.091      1.802      9.388
REMARK INTER + INTRA:         -15.167
REMARK INTER:                 -15.041
REMARK INTRA:                  -0.126
REMARK UNBOUND:                -0.545
REMARK SMILES N=C(Nc1cc2ccccc2c2ccccc12)Nc1cc2ccccc2c2ccccc12
REMARK SMILES IDX 1 1 2 2 3 3 18 4 4 8 17 9 5 10 16 11 12 12 6 13 15 14 13 15
REMARK SMILES IDX 11 16 7 17 14 18 10 19 8 20 9 21 19 22 32 23 20 24 31 25
REMARK SMILES IDX 27 26 21 27 30 28 28 29 26 30 22 31 29 32 25 33 23 34 24 35
REMARK H PARENT 1 5 3 6 18 7
ROOT
ATOM      1  N   UNL     1     -30.397   5.957   9.158  1.00  0.00    -0.269 NA
ATOM      2  C   UNL     1     -31.218   6.774   8.588  1.00  0.00    +0.197 C 
ATOM      3  N   UNL     1     -30.908   7.814   7.752  1.00  0.00    -0.326 N 
ATOM      4  N   UNL     1     -32.569   6.702   8.800  1.00  0.00    -0.326 N 
ATOM      5  H   UNL     1     -30.949   5.332   9.754  1.00  0.00    +0.191 HD
ATOM      6  H   UNL     1     -31.596   7.925   7.022  1.00  0.00    +0.170 HD
ATOM      7  H   UNL     1     -33.083   7.554   8.619  1.00  0.00    +0.170 HD
ENDROOT
BRANCH   3   8
ATOM      8  C   UNL     1     -29.632   8.293   7.327  1.00  0.00    +0.049 A 
ATOM      9  C   UNL     1     -29.495   9.632   6.840  1.00  0.00    +0.006 A 
ATOM     10  C   UNL     1     -28.477   7.517   7.478  1.00  0.00    +0.035 A 
ATOM     11  C   UNL     1     -30.591  10.535   6.756  1.00  0.00    +0.011 A 
ATOM     12  C   UNL     1     -28.213  10.104   6.421  1.00  0.00    -0.008 A 
ATOM     13  C   UNL     1     -27.214   7.962   7.081  1.00  0.00    -0.016 A 
ATOM     14  C   UNL     1     -30.467  11.831   6.256  1.00  0.00    +0.001 A 
ATOM     15  C   UNL     1     -28.131  11.427   5.912  1.00  0.00    +0.009 A 
ATOM     16  C   UNL     1     -27.059   9.253   6.534  1.00  0.00    -0.010 A 
ATOM     17  C   UNL     1     -26.108   7.105   7.231  1.00  0.00    +0.009 A 
ATOM     18  C   UNL     1     -29.233  12.275   5.826  1.00  0.00    +0.001 A 
ATOM     19  C   UNL     1     -25.740   9.617   6.145  1.00  0.00    +0.009 A 
ATOM     20  C   UNL     1     -24.831   7.498   6.840  1.00  0.00    +0.001 A 
ATOM     21  C   UNL     1     -24.647   8.757   6.294  1.00  0.00    +0.001 A 
ENDBRANCH   3   8
BRANCH   4  22
ATOM     22  C   UNL     1     -33.390   5.545   8.689  1.00  0.00    +0.049 A 
ATOM     23  C   UNL     1     -33.784   5.067   7.409  1.00  0.00    +0.006 A 
ATOM     24  C   UNL     1     -33.847   4.887   9.837  1.00  0.00    +0.035 A 
ATOM     25  C   UNL     1     -33.414   5.736   6.215  1.00  0.00    +0.011 A 
ATOM     26  C   UNL     1     -34.586   3.892   7.313  1.00  0.00    -0.008 A 
ATOM     27  C   UNL     1     -34.641   3.740   9.768  1.00  0.00    -0.016 A 
ATOM     28  C   UNL     1     -33.778   5.266   4.955  1.00  0.00    +0.001 A 
ATOM     29  C   UNL     1     -34.930   3.445   6.011  1.00  0.00    +0.009 A 
ATOM     30  C   UNL     1     -35.017   3.218   8.509  1.00  0.00    -0.010 A 
ATOM     31  C   UNL     1     -35.053   3.116  10.959  1.00  0.00    +0.009 A 
ATOM     32  C   UNL     1     -34.532   4.114   4.853  1.00  0.00    +0.001 A 
ATOM     33  C   UNL     1     -35.816   2.044   8.529  1.00  0.00    +0.009 A 
ATOM     34  C   UNL     1     -35.837   1.967  10.936  1.00  0.00    +0.001 A 
ATOM     35  C   UNL     1     -36.219   1.429   9.718  1.00  0.00    +0.001 A 
ENDBRANCH   4  22
TORSDOF 2
ENDMDL
MODEL 4
REMARK VINA RESULT:   -12.809      4.141      9.436
REMARK INTER + INTRA:         -14.852
REMARK INTER:                 -14.481
REMARK INTRA:                  -0.372
REMARK UNBOUND:                -0.545
REMARK SMILES N=C(Nc1cc2ccccc2c2ccccc12)Nc1cc2ccccc2c2ccccc12
REMARK SMILES IDX 1 1 2 2 3 3 18 4 4 8 17 9 5 10 16 11 12 12 6 13 15 14 13 15
REMARK SMILES IDX 11 16 7 17 14 18 10 19 8 20 9 21 19 22 32 23 20 24 31 25
REMARK SMILES IDX 27 26 21 27 30 28 28 29 26 30 22 31 29 32 25 33 23 34 24 35
REMARK H PARENT 1 5 3 6 18 7
ROOT
ATOM      1  N   UNL     1     -25.392   4.836   8.281  1.00  0.00    -0.269 NA
ATOM      2  C   UNL     1     -26.370   4.903   9.120  1.00  0.00    +0.197 C 
ATOM      3  N   UNL     1     -27.400   5.807   9.123  1.00  0.00    -0.326 N 
ATOM      4  N   UNL     1     -26.468   4.044  10.182  1.00  0.00    -0.326 N 
ATOM      5  H   UNL     1     -24.772   4.080   8.591  1.00  0.00    +0.191 HD
ATOM      6  H   UNL     1     -28.266   5.386   9.424  1.00  0.00    +0.170 HD
ATOM      7  H   UNL     1     -27.030   4.374  10.956  1.00  0.00    +0.170 HD
ENDROOT
BRANCH   3   8
ATOM      8  C   UNL     1     -27.646   6.912   8.254  1.00  0.00    +0.049 A 
ATOM      9  C   UNL     1     -28.989   7.273   7.914  1.00  0.00    +0.006 A 
ATOM     10  C   UNL     1     -26.603   7.732   7.808  1.00  0.00    +0.035 A 
ATOM     11  C   UNL     1     -30.122   6.570   8.411  1.00  0.00    +0.011 A 
ATOM     12  C   UNL     1     -29.225   8.384   7.047  1.00  0.00    -0.008 A 
ATOM     13  C   UNL     1     -26.812   8.826   6.965  1.00  0.00    -0.016 A 
ATOM     14  C   UNL     1     -31.430   6.900   8.059  1.00  0.00    +0.001 A 
ATOM     15  C   UNL     1     -30.571   8.683   6.709  1.00  0.00    +0.009 A 
ATOM     16  C   UNL     1     -28.120   9.165   6.558  1.00  0.00    -0.010 A 
ATOM     17  C   UNL     1     -25.705   9.577   6.528  1.00  0.00    +0.009 A 
ATOM     18  C   UNL     1     -31.655   7.956   7.200  1.00  0.00    +0.001 A 
ATOM     19  C   UNL     1     -28.239  10.284   5.690  1.00  0.00    +0.009 A 
ATOM     20  C   UNL     1     -25.862  10.669   5.680  1.00  0.00    +0.001 A 
ATOM     21  C   UNL     1     -27.132  11.023   5.258  1.00  0.00    +0.001 A 
ENDBRANCH   3   8
BRANCH   4  22
ATOM     22  C   UNL     1     -26.389   2.624  10.141  1.00  0.00    +0.049 A 
ATOM     23  C   UNL     1     -27.574   1.839  10.179  1.00  0.00    +0.006 A 
ATOM     24  C   UNL     1     -25.144   1.985  10.100  1.00  0.00    +0.035 A 
ATOM     25  C   UNL     1     -28.858   2.430  10.298  1.00  0.00    +0.011 A 
ATOM     26  C   UNL     1     -27.479   0.419  10.112  1.00  0.00    -0.008 A 
ATOM     27  C   UNL     1     -25.027   0.594  10.043  1.00  0.00    -0.016 A 
ATOM     28  C   UNL     1     -30.027   1.671  10.316  1.00  0.00    +0.001 A 
ATOM     29  C   UNL     1     -28.694  -0.315  10.129  1.00  0.00    +0.009 A 
ATOM     30  C   UNL     1     -26.188  -0.212  10.039  1.00  0.00    -0.010 A 
ATOM     31  C   UNL     1     -23.747   0.015   9.985  1.00  0.00    +0.009 A 
ATOM     32  C   UNL     1     -29.945   0.296  10.225  1.00  0.00    +0.001 A 
ATOM     33  C   UNL     1     -25.978  -1.615   9.970  1.00  0.00    +0.009 A 
ATOM     34  C   UNL     1     -23.583  -1.365   9.919  1.00  0.00    +0.001 A 
ATOM     35  C   UNL     1     -24.702  -2.183   9.910  1.00  0.00    +0.001 A 
ENDBRANCH   4  22
TORSDOF 2
ENDMDL
MODEL 5
REMARK VINA RESULT:   -12.786      4.023      9.709
REMARK INTER + INTRA:         -14.827
REMARK INTER:                 -14.104
REMARK INTRA:                  -0.722
REMARK UNBOUND:                -0.545
REMARK SMILES N=C(Nc1cc2ccccc2c2ccccc12)Nc1cc2ccccc2c2ccccc12
REMARK SMILES IDX 1 1 2 2 3 3 18 4 4 8 17 9 5 10 16 11 12 12 6 13 15 14 13 15
REMARK SMILES IDX 11 16 7 17 14 18 10 19 8 20 9 21 19 22 32 23 20 24 31 25
REMARK SMILES IDX 27 26 21 27 30 28 28 29 26 30 22 31 29 32 25 33 23 34 24 35
REMARK H PARENT 1 5 3 6 18 7
ROOT
ATOM      1  N   UNL     1     -26.170   4.919   7.624  1.00  0.00    -0.269 NA
ATOM      2  C   UNL     1     -26.624   5.363   8.748  1.00  0.00    +0.197 C 
ATOM      3  N   UNL     1     -27.250   6.560   8.975  1.00  0.00    -0.326 N 
ATOM      4  N   UNL     1     -26.489   4.651   9.910  1.00  0.00    -0.326 N 
ATOM      5  H   UNL     1     -25.717   4.018   7.809  1.00  0.00    +0.191 HD
ATOM      6  H   UNL     1     -27.979   6.475   9.667  1.00  0.00    +0.170 HD
ATOM      7  H   UNL     1     -26.542   5.196  10.761  1.00  0.00    +0.170 HD
ENDROOT
BRANCH   3   8
ATOM      8  C   UNL     1     -27.526   7.630   8.072  1.00  0.00    +0.049 A 
ATOM      9  C   UNL     1     -28.875   7.914   7.686  1.00  0.00    +0.006 A 
ATOM     10  C   UNL     1     -26.513   8.492   7.634  1.00  0.00    +0.035 A 
ATOM     11  C   UNL     1     -29.985   7.165   8.169  1.00  0.00    +0.011 A 
ATOM     12  C   UNL     1     -29.142   8.990   6.785  1.00  0.00    -0.008 A 
ATOM     13  C   UNL     1     -26.753   9.553   6.758  1.00  0.00    -0.016 A 
ATOM     14  C   UNL     1     -31.298   7.420   7.773  1.00  0.00    +0.001 A 
ATOM     15  C   UNL     1     -30.491   9.212   6.403  1.00  0.00    +0.009 A 
ATOM     16  C   UNL     1     -28.065   9.814   6.307  1.00  0.00    -0.010 A 
ATOM     17  C   UNL     1     -25.674  10.349   6.334  1.00  0.00    +0.009 A 
ATOM     18  C   UNL     1     -31.550   8.442   6.881  1.00  0.00    +0.001 A 
ATOM     19  C   UNL     1     -28.214  10.906   5.408  1.00  0.00    +0.009 A 
ATOM     20  C   UNL     1     -25.860  11.411   5.454  1.00  0.00    +0.001 A 
ATOM     21  C   UNL     1     -27.134  11.690   4.988  1.00  0.00    +0.001 A 
ENDBRANCH   3   8
BRANCH   4  22
ATOM     22  C   UNL     1     -26.839   3.289  10.121  1.00  0.00    +0.049 A 
ATOM     23  C   UNL     1     -25.825   2.302  10.265  1.00  0.00    +0.006 A 
ATOM     24  C   UNL     1     -28.184   2.899  10.154  1.00  0.00    +0.035 A 
ATOM     25  C   UNL     1     -24.448   2.627  10.165  1.00  0.00    +0.011 A 
ATOM     26  C   UNL     1     -26.191   0.945  10.501  1.00  0.00    -0.008 A 
ATOM     27  C   UNL     1     -28.566   1.574  10.374  1.00  0.00    -0.016 A 
ATOM     28  C   UNL     1     -23.446   1.672  10.323  1.00  0.00    +0.001 A 
ATOM     29  C   UNL     1     -25.139   0.006  10.661  1.00  0.00    +0.009 A 
ATOM     30  C   UNL     1     -27.581   0.577  10.560  1.00  0.00    -0.010 A 
ATOM     31  C   UNL     1     -29.934   1.251  10.413  1.00  0.00    +0.009 A 
ATOM     32  C   UNL     1     -23.792   0.361  10.579  1.00  0.00    +0.001 A 
ATOM     33  C   UNL     1     -28.057  -0.742  10.788  1.00  0.00    +0.009 A 
ATOM     34  C   UNL     1     -30.360  -0.054  10.637  1.00  0.00    +0.001 A 
ATOM     35  C   UNL     1     -29.420  -1.053  10.827  1.00  0.00    +0.001 A 
ENDBRANCH   4  22
TORSDOF 2
ENDMDL
MODEL 6
REMARK VINA RESULT:   -12.398      4.002      8.966
REMARK INTER + INTRA:         -14.393
REMARK INTER:                 -14.220
REMARK INTRA:                  -0.172
REMARK UNBOUND:                -0.545
REMARK SMILES N=C(Nc1cc2ccccc2c2ccccc12)Nc1cc2ccccc2c2ccccc12
REMARK SMILES IDX 1 1 2 2 3 3 18 4 4 8 17 9 5 10 16 11 12 12 6 13 15 14 13 15
REMARK SMILES IDX 11 16 7 17 14 18 10 19 8 20 9 21 19 22 32 23 20 24 31 25
REMARK SMILES IDX 27 26 21 27 30 28 28 29 26 30 22 31 29 32 25 33 23 34 24 35
REMARK H PARENT 1 5 3 6 18 7
ROOT
ATOM      1  N   UNL     1     -33.300   0.965   9.732  1.00  0.00    -0.269 NA
ATOM      2  C   UNL     1     -32.809   1.737  10.643  1.00  0.00    +0.197 C 
ATOM      3  N   UNL     1     -33.251   2.985  10.999  1.00  0.00    -0.326 N 
ATOM      4  N   UNL     1     -31.706   1.381  11.372  1.00  0.00    -0.326 N 
ATOM      5  H   UNL     1     -32.708   0.129   9.687  1.00  0.00    +0.191 HD
ATOM      6  H   UNL     1     -33.160   3.145  11.990  1.00  0.00    +0.170 HD
ATOM      7  H   UNL     1     -31.193   2.149  11.786  1.00  0.00    +0.170 HD
ENDROOT
BRANCH   3   8
ATOM      8  C   UNL     1     -34.312   3.767  10.451  1.00  0.00    +0.049 A 
ATOM      9  C   UNL     1     -34.042   4.715   9.413  1.00  0.00    +0.006 A 
ATOM     10  C   UNL     1     -35.642   3.552  10.828  1.00  0.00    +0.035 A 
ATOM     11  C   UNL     1     -32.738   4.923   8.884  1.00  0.00    +0.011 A 
ATOM     12  C   UNL     1     -35.111   5.490   8.868  1.00  0.00    -0.008 A 
ATOM     13  C   UNL     1     -36.703   4.294  10.303  1.00  0.00    -0.016 A 
ATOM     14  C   UNL     1     -32.467   5.866   7.892  1.00  0.00    +0.001 A 
ATOM     15  C   UNL     1     -34.791   6.443   7.865  1.00  0.00    +0.009 A 
ATOM     16  C   UNL     1     -36.459   5.283   9.327  1.00  0.00    -0.010 A 
ATOM     17  C   UNL     1     -38.009   4.044  10.763  1.00  0.00    +0.009 A 
ATOM     18  C   UNL     1     -33.496   6.633   7.387  1.00  0.00    +0.001 A 
ATOM     19  C   UNL     1     -37.595   5.999   8.859  1.00  0.00    +0.009 A 
ATOM     20  C   UNL     1     -39.097   4.764  10.279  1.00  0.00    +0.001 A 
ATOM     21  C   UNL     1     -38.890   5.745   9.325  1.00  0.00    +0.001 A 
ENDBRANCH   3   8
BRANCH   4  22
ATOM     22  C   UNL     1     -31.504   0.159  12.072  1.00  0.00    +0.049 A 
ATOM     23  C   UNL     1     -30.682   0.125  13.231  1.00  0.00    +0.006 A 
ATOM     24  C   UNL     1     -32.081  -1.028  11.605  1.00  0.00    +0.035 A 
ATOM     25  C   UNL     1     -30.011   1.281  13.706  1.00  0.00    +0.011 A 
ATOM     26  C   UNL     1     -30.509  -1.102  13.936  1.00  0.00    -0.008 A 
ATOM     27  C   UNL     1     -31.917  -2.244  12.273  1.00  0.00    -0.016 A 
ATOM     28  C   UNL     1     -29.220   1.263  14.852  1.00  0.00    +0.001 A 
ATOM     29  C   UNL     1     -29.699  -1.074  15.101  1.00  0.00    +0.009 A 
ATOM     30  C   UNL     1     -31.139  -2.302  13.452  1.00  0.00    -0.010 A 
ATOM     31  C   UNL     1     -32.539  -3.397  11.762  1.00  0.00    +0.009 A 
ATOM     32  C   UNL     1     -29.069   0.085  15.555  1.00  0.00    +0.001 A 
ATOM     33  C   UNL     1     -31.034  -3.575  14.073  1.00  0.00    +0.009 A 
ATOM     34  C   UNL     1     -32.410  -4.627  12.400  1.00  0.00    +0.001 A 
ATOM     35  C   UNL     1     -31.656  -4.717  13.559  1.00  0.00    +0.001 A 
ENDBRANCH   4  22
TORSDOF 2
ENDMDL
MODEL 7
REMARK VINA RESULT:   -12.372      1.094      2.844
REMARK INTER + INTRA:         -14.364
REMARK INTER:                 -13.801
REMARK INTRA:                  -0.563
REMARK UNBOUND:                -0.545
REMARK SMILES N=C(Nc1cc2ccccc2c2ccccc12)Nc1cc2ccccc2c2ccccc12
REMARK SMILES IDX 1 1 2 2 3 3 18 4 4 8 17 9 5 10 16 11 12 12 6 13 15 14 13 15
REMARK SMILES IDX 11 16 7 17 14 18 10 19 8 20 9 21 19 22 32 23 20 24 31 25
REMARK SMILES IDX 27 26 21 27 30 28 28 29 26 30 22 31 29 32 25 33 23 34 24 35
REMARK H PARENT 1 5 3 6 18 7
ROOT
ATOM      1  N   UNL     1     -31.823   6.199   6.805  1.00  0.00    -0.269 NA
ATOM      2  C   UNL     1     -31.752   6.788   7.951  1.00  0.00    +0.197 C 
ATOM      3  N   UNL     1     -32.199   6.313   9.157  1.00  0.00    -0.326 N 
ATOM      4  N   UNL     1     -31.216   8.041   8.085  1.00  0.00    -0.326 N 
ATOM      5  H   UNL     1     -31.443   6.844   6.104  1.00  0.00    +0.191 HD
ATOM      6  H   UNL     1     -31.590   6.584   9.914  1.00  0.00    +0.170 HD
ATOM      7  H   UNL     1     -31.512   8.553   8.906  1.00  0.00    +0.170 HD
ENDROOT
BRANCH   3   8
ATOM      8  C   UNL     1     -32.883   5.099   9.461  1.00  0.00    +0.049 A 
ATOM      9  C   UNL     1     -34.306   5.025   9.332  1.00  0.00    +0.006 A 
ATOM     10  C   UNL     1     -32.182   3.930   9.781  1.00  0.00    +0.035 A 
ATOM     11  C   UNL     1     -35.096   6.128   8.903  1.00  0.00    +0.011 A 
ATOM     12  C   UNL     1     -34.982   3.803   9.634  1.00  0.00    -0.008 A 
ATOM     13  C   UNL     1     -32.822   2.724  10.074  1.00  0.00    -0.016 A 
ATOM     14  C   UNL     1     -36.486   6.069   8.802  1.00  0.00    +0.001 A 
ATOM     15  C   UNL     1     -36.398   3.787   9.525  1.00  0.00    +0.009 A 
ATOM     16  C   UNL     1     -34.230   2.639  10.021  1.00  0.00    -0.010 A 
ATOM     17  C   UNL     1     -32.047   1.604  10.425  1.00  0.00    +0.009 A 
ATOM     18  C   UNL     1     -37.139   4.896   9.122  1.00  0.00    +0.001 A 
ATOM     19  C   UNL     1     -34.797   1.377  10.347  1.00  0.00    +0.009 A 
ATOM     20  C   UNL     1     -32.638   0.383  10.736  1.00  0.00    +0.001 A 
ATOM     21  C   UNL     1     -34.018   0.269  10.699  1.00  0.00    +0.001 A 
ENDBRANCH   3   8
BRANCH   4  22
ATOM     22  C   UNL     1     -29.958   8.488   7.596  1.00  0.00    +0.049 A 
ATOM     23  C   UNL     1     -29.839   9.766   6.985  1.00  0.00    +0.006 A 
ATOM     24  C   UNL     1     -28.831   7.660   7.677  1.00  0.00    +0.035 A 
ATOM     25  C   UNL     1     -30.960  10.616   6.807  1.00  0.00    +0.011 A 
ATOM     26  C   UNL     1     -28.566  10.210   6.522  1.00  0.00    -0.008 A 
ATOM     27  C   UNL     1     -27.576   8.069   7.221  1.00  0.00    -0.016 A 
ATOM     28  C   UNL     1     -30.852  11.879   6.228  1.00  0.00    +0.001 A 
ATOM     29  C   UNL     1     -28.499  11.504   5.943  1.00  0.00    +0.009 A 
ATOM     30  C   UNL     1     -27.418   9.351   6.645  1.00  0.00    -0.010 A 
ATOM     31  C   UNL     1     -26.481   7.197   7.348  1.00  0.00    +0.009 A 
ATOM     32  C   UNL     1     -29.618  12.326   5.801  1.00  0.00    +0.001 A 
ATOM     33  C   UNL     1     -26.107   9.690   6.218  1.00  0.00    +0.009 A 
ATOM     34  C   UNL     1     -25.211   7.566   6.916  1.00  0.00    +0.001 A 
ATOM     35  C   UNL     1     -25.023   8.817   6.350  1.00  0.00    +0.001 A 
ENDBRANCH   4  22
TORSDOF 2
ENDMDL
MODEL 8
REMARK VINA RESULT:   -12.068      3.835      7.539
REMARK INTER + INTRA:         -14.024
REMARK INTER:                 -13.820
REMARK INTRA:                  -0.204
REMARK UNBOUND:                -0.545
REMARK SMILES N=C(Nc1cc2ccccc2c2ccccc12)Nc1cc2ccccc2c2ccccc12
REMARK SMILES IDX 1 1 2 2 3 3 18 4 4 8 17 9 5 10 16 11 12 12 6 13 15 14 13 15
REMARK SMILES IDX 11 16 7 17 14 18 10 19 8 20 9 21 19 22 32 23 20 24 31 25
REMARK SMILES IDX 27 26 21 27 30 28 28 29 26 30 22 31 29 32 25 33 23 34 24 35
REMARK H PARENT 1 5 3 6 18 7
ROOT
ATOM      1  N   UNL     1     -33.773   1.628  12.187  1.00  0.00    -0.269 NA
ATOM      2  C   UNL     1     -33.020   1.747  11.145  1.00  0.00    +0.197 C 
ATOM      3  N   UNL     1     -33.221   2.567  10.065  1.00  0.00    -0.326 N 
ATOM      4  N   UNL     1     -31.886   0.996  10.986  1.00  0.00    -0.326 N 
ATOM      5  H   UNL     1     -33.364   0.898  12.780  1.00  0.00    +0.191 HD
ATOM      6  H   UNL     1     -32.353   2.933   9.707  1.00  0.00    +0.170 HD
ATOM      7  H   UNL     1     -31.566   0.890  10.032  1.00  0.00    +0.170 HD
ENDROOT
BRANCH   3   8
ATOM      8  C   UNL     1     -34.304   3.452   9.782  1.00  0.00    +0.049 A 
ATOM      9  C   UNL     1     -34.101   4.584   8.930  1.00  0.00    +0.006 A 
ATOM     10  C   UNL     1     -35.602   3.180  10.229  1.00  0.00    +0.035 A 
ATOM     11  C   UNL     1     -32.843   4.881   8.334  1.00  0.00    +0.011 A 
ATOM     12  C   UNL     1     -35.192   5.463   8.649  1.00  0.00    -0.008 A 
ATOM     13  C   UNL     1     -36.684   4.022   9.961  1.00  0.00    -0.016 A 
ATOM     14  C   UNL     1     -32.634   5.999   7.527  1.00  0.00    +0.001 A 
ATOM     15  C   UNL     1     -34.935   6.592   7.827  1.00  0.00    +0.009 A 
ATOM     16  C   UNL     1     -36.499   5.183   9.180  1.00  0.00    -0.010 A 
ATOM     17  C   UNL     1     -37.950   3.698  10.481  1.00  0.00    +0.009 A 
ATOM     18  C   UNL     1     -33.682   6.861   7.279  1.00  0.00    +0.001 A 
ATOM     19  C   UNL     1     -37.652   5.988   8.968  1.00  0.00    +0.009 A 
ATOM     20  C   UNL     1     -39.056   4.511  10.250  1.00  0.00    +0.001 A 
ATOM     21  C   UNL     1     -38.907   5.660   9.492  1.00  0.00    +0.001 A 
ENDBRANCH   3   8
BRANCH   4  22
ATOM     22  C   UNL     1     -30.833   0.832  11.928  1.00  0.00    +0.049 A 
ATOM     23  C   UNL     1     -29.569   1.443  11.704  1.00  0.00    +0.006 A 
ATOM     24  C   UNL     1     -31.018   0.037  13.067  1.00  0.00    +0.035 A 
ATOM     25  C   UNL     1     -29.300   2.195  10.532  1.00  0.00    +0.011 A 
ATOM     26  C   UNL     1     -28.531   1.289  12.669  1.00  0.00    -0.008 A 
ATOM     27  C   UNL     1     -30.013  -0.136  14.021  1.00  0.00    -0.016 A 
ATOM     28  C   UNL     1     -28.072   2.815  10.311  1.00  0.00    +0.001 A 
ATOM     29  C   UNL     1     -27.298   1.941  12.408  1.00  0.00    +0.009 A 
ATOM     30  C   UNL     1     -28.758   0.492  13.846  1.00  0.00    -0.010 A 
ATOM     31  C   UNL     1     -30.269  -0.932  15.151  1.00  0.00    +0.009 A 
ATOM     32  C   UNL     1     -27.071   2.692  11.254  1.00  0.00    +0.001 A 
ATOM     33  C   UNL     1     -27.797   0.271  14.868  1.00  0.00    +0.009 A 
ATOM     34  C   UNL     1     -29.299  -1.125  16.131  1.00  0.00    +0.001 A 
ATOM     35  C   UNL     1     -28.061  -0.520  15.990  1.00  0.00    +0.001 A 
ENDBRANCH   4  22
TORSDOF 2
ENDMDL
MODEL 9
REMARK VINA RESULT:   -11.883      3.792      7.835
REMARK INTER + INTRA:         -13.817
REMARK INTER:                 -13.138
REMARK INTRA:                  -0.679
REMARK UNBOUND:                -0.545
REMARK SMILES N=C(Nc1cc2ccccc2c2ccccc12)Nc1cc2ccccc2c2ccccc12
REMARK SMILES IDX 1 1 2 2 3 3 18 4 4 8 17 9 5 10 16 11 12 12 6 13 15 14 13 15
REMARK SMILES IDX 11 16 7 17 14 18 10 19 8 20 9 21 19 22 32 23 20 24 31 25
REMARK SMILES IDX 27 26 21 27 30 28 28 29 26 30 22 31 29 32 25 33 23 34 24 35
REMARK H PARENT 1 5 3 6 18 7
ROOT
ATOM      1  N   UNL     1     -32.828   0.596   9.932  1.00  0.00    -0.269 NA
ATOM      2  C   UNL     1     -32.565   1.379  10.924  1.00  0.00    +0.197 C 
ATOM      3  N   UNL     1     -31.578   1.228  11.862  1.00  0.00    -0.326 N 
ATOM      4  N   UNL     1     -33.314   2.498  11.176  1.00  0.00    -0.326 N 
ATOM      5  H   UNL     1     -33.655   0.970   9.455  1.00  0.00    +0.191 HD
ATOM      6  H   UNL     1     -31.184   2.114  12.137  1.00  0.00    +0.170 HD
ATOM      7  H   UNL     1     -33.275   2.840  12.127  1.00  0.00    +0.170 HD
ENDROOT
BRANCH   3   8
ATOM      8  C   UNL     1     -30.627   0.175  12.023  1.00  0.00    +0.049 A 
ATOM      9  C   UNL     1     -29.230   0.438  11.852  1.00  0.00    +0.006 A 
ATOM     10  C   UNL     1     -31.017  -1.097  12.458  1.00  0.00    +0.035 A 
ATOM     11  C   UNL     1     -28.727   1.728  11.523  1.00  0.00    +0.011 A 
ATOM     12  C   UNL     1     -28.286  -0.620  12.020  1.00  0.00    -0.008 A 
ATOM     13  C   UNL     1     -30.109  -2.144  12.634  1.00  0.00    -0.016 A 
ATOM     14  C   UNL     1     -27.370   1.981  11.327  1.00  0.00    +0.001 A 
ATOM     15  C   UNL     1     -26.914  -0.321  11.806  1.00  0.00    +0.009 A 
ATOM     16  C   UNL     1     -28.733  -1.932  12.406  1.00  0.00    -0.010 A 
ATOM     17  C   UNL     1     -30.587  -3.405  13.035  1.00  0.00    +0.009 A 
ATOM     18  C   UNL     1     -26.461   0.952  11.462  1.00  0.00    +0.001 A 
ATOM     19  C   UNL     1     -27.884  -3.056  12.597  1.00  0.00    +0.009 A 
ATOM     20  C   UNL     1     -29.724  -4.482  13.213  1.00  0.00    +0.001 A 
ATOM     21  C   UNL     1     -28.368  -4.308  12.992  1.00  0.00    +0.001 A 
ENDBRANCH   3   8
BRANCH   4  22
ATOM     22  C   UNL     1     -33.658   3.521  10.249  1.00  0.00    +0.049 A 
ATOM     23  C   UNL     1     -35.022   3.789   9.952  1.00  0.00    +0.006 A 
ATOM     24  C   UNL     1     -32.657   4.249   9.593  1.00  0.00    +0.035 A 
ATOM     25  C   UNL     1     -36.075   3.033  10.528  1.00  0.00    +0.011 A 
ATOM     26  C   UNL     1     -35.352   4.834   9.040  1.00  0.00    -0.008 A 
ATOM     27  C   UNL     1     -32.956   5.270   8.689  1.00  0.00    -0.016 A 
ATOM     28  C   UNL     1     -37.416   3.300  10.259  1.00  0.00    +0.001 A 
ATOM     29  C   UNL     1     -36.729   5.075   8.798  1.00  0.00    +0.009 A 
ATOM     30  C   UNL     1     -34.304   5.587   8.403  1.00  0.00    -0.010 A 
ATOM     31  C   UNL     1     -31.905   5.976   8.078  1.00  0.00    +0.009 A 
ATOM     32  C   UNL     1     -37.743   4.327   9.397  1.00  0.00    +0.001 A 
ATOM     33  C   UNL     1     -34.518   6.645   7.480  1.00  0.00    +0.009 A 
ATOM     34  C   UNL     1     -32.156   7.006   7.177  1.00  0.00    +0.001 A 
ATOM     35  C   UNL     1     -33.466   7.343   6.878  1.00  0.00    +0.001 A 
ENDBRANCH   4  22
TORSDOF 2
ENDMDL
