MODEL 1
REMARK VINA RESULT:    -9.104      0.000      0.000
REMARK INTER + INTRA:         -10.995
REMARK INTER:                 -10.435
REMARK INTRA:                  -0.560
REMARK UNBOUND:                -0.560
REMARK SMILES Cc1cc(C(=O)c2ccccc2)cc(C)c1O
REMARK SMILES IDX 1 1 2 2 3 3 4 4 13 5 14 6 16 7 15 8 17 9 5 11 6 12 7 13 8 14
REMARK SMILES IDX 12 15 9 16 11 17 10 18
REMARK H PARENT 17 10
ROOT
ATOM      1  C   UNL     1     -26.410   8.508   5.963  1.00  0.00    +0.048 C 
ATOM      2  C   UNL     1     -27.483   9.555   6.062  1.00  0.00    -0.008 A 
ATOM      3  C   UNL     1     -28.734   9.229   6.599  1.00  0.00    +0.019 A 
ATOM      4  C   UNL     1     -29.736  10.199   6.699  1.00  0.00    +0.023 A 
ATOM      5  C   UNL     1     -29.503  11.497   6.227  1.00  0.00    +0.019 A 
ATOM      6  C   UNL     1     -28.257  11.847   5.684  1.00  0.00    -0.008 A 
ATOM      7  C   UNL     1     -27.257  10.864   5.610  1.00  0.00    +0.121 A 
ATOM      8  C   UNL     1     -28.042  13.251   5.193  1.00  0.00    +0.048 C 
ENDROOT
BRANCH   7   9
ATOM      9  O   UNL     1     -26.020  11.133   5.088  1.00  0.00    -0.507 OA
ATOM     10  H   UNL     1     -25.332  10.791   5.679  1.00  0.00    +0.293 HD
ENDBRANCH   7   9
BRANCH   4  11
ATOM     11  C   UNL     1     -31.050   9.804   7.269  1.00  0.00    +0.193 C 
ATOM     12  O   UNL     1     -31.583  10.531   8.103  1.00  0.00    -0.289 OA
BRANCH  11  13
ATOM     13  C   UNL     1     -31.728   8.549   6.856  1.00  0.00    +0.022 A 
ATOM     14  C   UNL     1     -32.146   8.425   5.525  1.00  0.00    +0.012 A 
ATOM     15  C   UNL     1     -31.916   7.485   7.746  1.00  0.00    +0.012 A 
ATOM     16  C   UNL     1     -32.778   7.258   5.097  1.00  0.00    +0.001 A 
ATOM     17  C   UNL     1     -32.549   6.319   7.313  1.00  0.00    +0.001 A 
ATOM     18  C   UNL     1     -32.983   6.207   5.992  1.00  0.00    +0.000 A 
ENDBRANCH  11  13
ENDBRANCH   4  11
TORSDOF 3
ENDMDL
MODEL 2
REMARK VINA RESULT:    -8.725      1.972      6.055
REMARK INTER + INTRA:         -10.560
REMARK INTER:                 -10.200
REMARK INTRA:                  -0.360
REMARK UNBOUND:                -0.560
REMARK SMILES Cc1cc(C(=O)c2ccccc2)cc(C)c1O
REMARK SMILES IDX 1 1 2 2 3 3 4 4 13 5 14 6 16 7 15 8 17 9 5 11 6 12 7 13 8 14
REMARK SMILES IDX 12 15 9 16 11 17 10 18
REMARK H PARENT 17 10
ROOT
ATOM      1  C   UNL     1     -32.898   7.362   4.693  1.00  0.00    +0.048 C 
ATOM      2  C   UNL     1     -32.114   7.261   5.971  1.00  0.00    -0.008 A 
ATOM      3  C   UNL     1     -30.923   7.983   6.122  1.00  0.00    +0.019 A 
ATOM      4  C   UNL     1     -30.189   7.897   7.309  1.00  0.00    +0.023 A 
ATOM      5  C   UNL     1     -30.626   7.059   8.342  1.00  0.00    +0.019 A 
ATOM      6  C   UNL     1     -31.816   6.325   8.214  1.00  0.00    -0.008 A 
ATOM      7  C   UNL     1     -32.548   6.439   7.022  1.00  0.00    +0.121 A 
ATOM      8  C   UNL     1     -32.254   5.440   9.347  1.00  0.00    +0.048 C 
ENDROOT
BRANCH   7   9
ATOM      9  O   UNL     1     -33.714   5.750   6.825  1.00  0.00    -0.507 OA
ATOM     10  H   UNL     1     -34.224   5.720   7.649  1.00  0.00    +0.293 HD
ENDBRANCH   7   9
BRANCH   4  11
ATOM     11  C   UNL     1     -28.929   8.676   7.420  1.00  0.00    +0.193 C 
ATOM     12  O   UNL     1     -27.994   8.212   8.067  1.00  0.00    -0.289 OA
BRANCH  11  13
ATOM     13  C   UNL     1     -28.778  10.002   6.769  1.00  0.00    +0.022 A 
ATOM     14  C   UNL     1     -27.631  10.241   6.002  1.00  0.00    +0.012 A 
ATOM     15  C   UNL     1     -29.767  10.988   6.868  1.00  0.00    +0.012 A 
ATOM     16  C   UNL     1     -27.459  11.472   5.368  1.00  0.00    +0.001 A 
ATOM     17  C   UNL     1     -29.590  12.218   6.231  1.00  0.00    +0.001 A 
ATOM     18  C   UNL     1     -28.436  12.460   5.486  1.00  0.00    +0.000 A 
ENDBRANCH  11  13
ENDBRANCH   4  11
TORSDOF 3
ENDMDL
MODEL 3
REMARK VINA RESULT:    -8.495      2.178      6.167
REMARK INTER + INTRA:         -10.296
REMARK INTER:                  -9.983
REMARK INTRA:                  -0.313
REMARK UNBOUND:                -0.560
REMARK SMILES Cc1cc(C(=O)c2ccccc2)cc(C)c1O
REMARK SMILES IDX 1 1 2 2 3 3 4 4 13 5 14 6 16 7 15 8 17 9 5 11 6 12 7 13 8 14
REMARK SMILES IDX 12 15 9 16 11 17 10 18
REMARK H PARENT 17 10
ROOT
ATOM      1  C   UNL     1     -33.019   4.966   9.631  1.00  0.00    +0.048 C 
ATOM      2  C   UNL     1     -32.634   5.775   8.425  1.00  0.00    -0.008 A 
ATOM      3  C   UNL     1     -31.464   6.545   8.442  1.00  0.00    +0.019 A 
ATOM      4  C   UNL     1     -31.097   7.298   7.322  1.00  0.00    +0.023 A 
ATOM      5  C   UNL     1     -31.919   7.313   6.189  1.00  0.00    +0.019 A 
ATOM      6  C   UNL     1     -33.097   6.550   6.149  1.00  0.00    -0.008 A 
ATOM      7  C   UNL     1     -33.439   5.786   7.276  1.00  0.00    +0.121 A 
ATOM      8  C   UNL     1     -33.952   6.588   4.913  1.00  0.00    +0.048 C 
ENDROOT
BRANCH   7   9
ATOM      9  O   UNL     1     -34.575   5.022   7.311  1.00  0.00    -0.507 OA
ATOM     10  H   UNL     1     -35.194   5.320   6.628  1.00  0.00    +0.293 HD
ENDBRANCH   7   9
BRANCH   4  11
ATOM     11  C   UNL     1     -29.851   8.104   7.389  1.00  0.00    +0.193 C 
ATOM     12  O   UNL     1     -28.817   7.576   7.791  1.00  0.00    -0.289 OA
BRANCH  11  13
ATOM     13  C   UNL     1     -29.831   9.532   6.982  1.00  0.00    +0.022 A 
ATOM     14  C   UNL     1     -28.628  10.074   6.511  1.00  0.00    +0.012 A 
ATOM     15  C   UNL     1     -30.984  10.325   7.019  1.00  0.00    +0.012 A 
ATOM     16  C   UNL     1     -28.573  11.409   6.111  1.00  0.00    +0.001 A 
ATOM     17  C   UNL     1     -30.923  11.660   6.617  1.00  0.00    +0.001 A 
ATOM     18  C   UNL     1     -29.719  12.203   6.168  1.00  0.00    +0.000 A 
ENDBRANCH  11  13
ENDBRANCH   4  11
TORSDOF 3
ENDMDL
MODEL 4
REMARK VINA RESULT:    -8.328      2.076      5.196
REMARK INTER + INTRA:         -10.105
REMARK INTER:                 -10.002
REMARK INTRA:                  -0.103
REMARK UNBOUND:                -0.560
REMARK SMILES Cc1cc(C(=O)c2ccccc2)cc(C)c1O
REMARK SMILES IDX 1 1 2 2 3 3 4 4 13 5 14 6 16 7 15 8 17 9 5 11 6 12 7 13 8 14
REMARK SMILES IDX 12 15 9 16 11 17 10 18
REMARK H PARENT 17 10
ROOT
ATOM      1  C   UNL     1     -32.443   7.531   7.331  1.00  0.00    +0.048 C 
ATOM      2  C   UNL     1     -31.331   8.540   7.260  1.00  0.00    -0.008 A 
ATOM      3  C   UNL     1     -30.052   8.147   6.847  1.00  0.00    +0.019 A 
ATOM      4  C   UNL     1     -29.014   9.080   6.774  1.00  0.00    +0.023 A 
ATOM      5  C   UNL     1     -29.241  10.410   7.151  1.00  0.00    +0.019 A 
ATOM      6  C   UNL     1     -30.514  10.828   7.570  1.00  0.00    -0.008 A 
ATOM      7  C   UNL     1     -31.549   9.879   7.618  1.00  0.00    +0.121 A 
ATOM      8  C   UNL     1     -30.720  12.264   7.961  1.00  0.00    +0.048 C 
ENDROOT
BRANCH   7   9
ATOM      9  O   UNL     1     -32.814  10.214   8.020  1.00  0.00    -0.507 OA
ATOM     10  H   UNL     1     -33.450   9.565   7.682  1.00  0.00    +0.293 HD
ENDBRANCH   7   9
BRANCH   4  11
ATOM     11  C   UNL     1     -27.673   8.615   6.337  1.00  0.00    +0.193 C 
ATOM     12  O   UNL     1     -27.123   9.176   5.392  1.00  0.00    -0.289 OA
BRANCH  11  13
ATOM     13  C   UNL     1     -26.986   7.487   7.014  1.00  0.00    +0.022 A 
ATOM     14  C   UNL     1     -25.663   7.198   6.654  1.00  0.00    +0.012 A 
ATOM     15  C   UNL     1     -27.610   6.743   8.023  1.00  0.00    +0.012 A 
ATOM     16  C   UNL     1     -24.982   6.152   7.276  1.00  0.00    +0.001 A 
ATOM     17  C   UNL     1     -26.924   5.697   8.642  1.00  0.00    +0.001 A 
ATOM     18  C   UNL     1     -25.614   5.399   8.266  1.00  0.00    +0.000 A 
ENDBRANCH  11  13
ENDBRANCH   4  11
TORSDOF 3
ENDMDL
MODEL 5
REMARK VINA RESULT:    -7.991      2.096      6.026
REMARK INTER + INTRA:          -9.719
REMARK INTER:                  -9.383
REMARK INTRA:                  -0.335
REMARK UNBOUND:                -0.560
REMARK SMILES Cc1cc(C(=O)c2ccccc2)cc(C)c1O
REMARK SMILES IDX 1 1 2 2 3 3 4 4 13 5 14 6 16 7 15 8 17 9 5 11 6 12 7 13 8 14
REMARK SMILES IDX 12 15 9 16 11 17 10 18
REMARK H PARENT 17 10
ROOT
ATOM      1  C   UNL     1     -32.538   5.202   9.340  1.00  0.00    +0.048 C 
ATOM      2  C   UNL     1     -32.349   6.066   8.125  1.00  0.00    -0.008 A 
ATOM      3  C   UNL     1     -31.322   7.017   8.094  1.00  0.00    +0.019 A 
ATOM      4  C   UNL     1     -31.138   7.822   6.966  1.00  0.00    +0.023 A 
ATOM      5  C   UNL     1     -32.005   7.704   5.872  1.00  0.00    +0.019 A 
ATOM      6  C   UNL     1     -33.043   6.758   5.881  1.00  0.00    -0.008 A 
ATOM      7  C   UNL     1     -33.200   5.946   7.016  1.00  0.00    +0.121 A 
ATOM      8  C   UNL     1     -33.950   6.658   4.688  1.00  0.00    +0.048 C 
ENDROOT
BRANCH   7   9
ATOM      9  O   UNL     1     -34.192   5.006   7.096  1.00  0.00    -0.507 OA
ATOM     10  H   UNL     1     -33.827   4.168   7.420  1.00  0.00    +0.293 HD
ENDBRANCH   7   9
BRANCH   4  11
ATOM     11  C   UNL     1     -30.039   8.821   6.981  1.00  0.00    +0.193 C 
ATOM     12  O   UNL     1     -30.314  10.012   7.108  1.00  0.00    -0.289 OA
BRANCH  11  13
ATOM     13  C   UNL     1     -28.618   8.412   6.843  1.00  0.00    +0.022 A 
ATOM     14  C   UNL     1     -27.844   9.015   5.843  1.00  0.00    +0.012 A 
ATOM     15  C   UNL     1     -28.033   7.481   7.709  1.00  0.00    +0.012 A 
ATOM     16  C   UNL     1     -26.503   8.663   5.690  1.00  0.00    +0.001 A 
ATOM     17  C   UNL     1     -26.690   7.132   7.552  1.00  0.00    +0.001 A 
ATOM     18  C   UNL     1     -25.928   7.719   6.542  1.00  0.00    +0.000 A 
ENDBRANCH  11  13
ENDBRANCH   4  11
TORSDOF 3
ENDMDL
MODEL 6
REMARK VINA RESULT:    -7.830      4.797      9.047
REMARK INTER + INTRA:          -9.534
REMARK INTER:                  -9.088
REMARK INTRA:                  -0.446
REMARK UNBOUND:                -0.560
REMARK SMILES Cc1cc(C(=O)c2ccccc2)cc(C)c1O
REMARK SMILES IDX 1 1 2 2 3 3 4 4 13 5 14 6 16 7 15 8 17 9 5 11 6 12 7 13 8 14
REMARK SMILES IDX 12 15 9 16 11 17 10 18
REMARK H PARENT 17 10
ROOT
ATOM      1  C   UNL     1     -36.710   1.682  10.594  1.00  0.00    +0.048 C 
ATOM      2  C   UNL     1     -36.518   3.062  10.032  1.00  0.00    -0.008 A 
ATOM      3  C   UNL     1     -35.242   3.490   9.644  1.00  0.00    +0.019 A 
ATOM      4  C   UNL     1     -35.055   4.770   9.116  1.00  0.00    +0.023 A 
ATOM      5  C   UNL     1     -36.142   5.647   9.006  1.00  0.00    +0.019 A 
ATOM      6  C   UNL     1     -37.430   5.242   9.389  1.00  0.00    -0.008 A 
ATOM      7  C   UNL     1     -37.600   3.945   9.899  1.00  0.00    +0.121 A 
ATOM      8  C   UNL     1     -38.572   6.209   9.252  1.00  0.00    +0.048 C 
ENDROOT
BRANCH   7   9
ATOM      9  O   UNL     1     -38.826   3.483  10.297  1.00  0.00    -0.507 OA
ATOM     10  H   UNL     1     -39.085   2.723   9.753  1.00  0.00    +0.293 HD
ENDBRANCH   7   9
BRANCH   4  11
ATOM     11  C   UNL     1     -33.682   5.182   8.725  1.00  0.00    +0.193 C 
ATOM     12  O   UNL     1     -32.746   4.942   9.483  1.00  0.00    -0.289 OA
BRANCH  11  13
ATOM     13  C   UNL     1     -33.420   5.878   7.440  1.00  0.00    +0.022 A 
ATOM     14  C   UNL     1     -32.475   6.912   7.423  1.00  0.00    +0.012 A 
ATOM     15  C   UNL     1     -34.057   5.498   6.252  1.00  0.00    +0.012 A 
ATOM     16  C   UNL     1     -32.195   7.583   6.232  1.00  0.00    +0.001 A 
ATOM     17  C   UNL     1     -33.773   6.173   5.064  1.00  0.00    +0.001 A 
ATOM     18  C   UNL     1     -32.847   7.215   5.054  1.00  0.00    +0.000 A 
ENDBRANCH  11  13
ENDBRANCH   4  11
TORSDOF 3
ENDMDL
MODEL 7
REMARK VINA RESULT:    -7.565      1.812      5.814
REMARK INTER + INTRA:          -9.230
REMARK INTER:                  -9.344
REMARK INTRA:                   0.114
REMARK UNBOUND:                -0.560
REMARK SMILES Cc1cc(C(=O)c2ccccc2)cc(C)c1O
REMARK SMILES IDX 1 1 2 2 3 3 4 4 13 5 14 6 16 7 15 8 17 9 5 11 6 12 7 13 8 14
REMARK SMILES IDX 12 15 9 16 11 17 10 18
REMARK H PARENT 17 10
ROOT
ATOM      1  C   UNL     1     -32.753   6.311   7.439  1.00  0.00    +0.048 C 
ATOM      2  C   UNL     1     -31.953   7.582   7.456  1.00  0.00    -0.008 A 
ATOM      3  C   UNL     1     -30.560   7.536   7.316  1.00  0.00    +0.019 A 
ATOM      4  C   UNL     1     -29.809   8.715   7.327  1.00  0.00    +0.023 A 
ATOM      5  C   UNL     1     -30.445   9.949   7.515  1.00  0.00    +0.019 A 
ATOM      6  C   UNL     1     -31.840  10.020   7.658  1.00  0.00    -0.008 A 
ATOM      7  C   UNL     1     -32.579   8.827   7.626  1.00  0.00    +0.121 A 
ATOM      8  C   UNL     1     -32.487  11.362   7.853  1.00  0.00    +0.048 C 
ENDROOT
BRANCH   7   9
ATOM      9  O   UNL     1     -33.941   8.819   7.763  1.00  0.00    -0.507 OA
ATOM     10  H   UNL     1     -34.359   8.675   6.901  1.00  0.00    +0.293 HD
ENDBRANCH   7   9
BRANCH   4  11
ATOM     11  C   UNL     1     -28.334   8.616   7.182  1.00  0.00    +0.193 C 
ATOM     12  O   UNL     1     -27.759   7.609   7.585  1.00  0.00    -0.289 OA
BRANCH  11  13
ATOM     13  C   UNL     1     -27.542   9.710   6.563  1.00  0.00    +0.022 A 
ATOM     14  C   UNL     1     -26.147   9.589   6.536  1.00  0.00    +0.012 A 
ATOM     15  C   UNL     1     -28.156  10.822   5.976  1.00  0.00    +0.012 A 
ATOM     16  C   UNL     1     -25.370  10.592   5.955  1.00  0.00    +0.001 A 
ATOM     17  C   UNL     1     -27.374  11.822   5.395  1.00  0.00    +0.001 A 
ATOM     18  C   UNL     1     -25.984  11.709   5.388  1.00  0.00    +0.000 A 
ENDBRANCH  11  13
ENDBRANCH   4  11
TORSDOF 3
ENDMDL
MODEL 8
REMARK VINA RESULT:    -7.505      4.340      7.124
REMARK INTER + INTRA:          -9.161
REMARK INTER:                  -8.626
REMARK INTRA:                  -0.536
REMARK UNBOUND:                -0.560
REMARK SMILES Cc1cc(C(=O)c2ccccc2)cc(C)c1O
REMARK SMILES IDX 1 1 2 2 3 3 4 4 13 5 14 6 16 7 15 8 17 9 5 11 6 12 7 13 8 14
REMARK SMILES IDX 12 15 9 16 11 17 10 18
REMARK H PARENT 17 10
ROOT
ATOM      1  C   UNL     1     -30.752   6.984   8.335  1.00  0.00    +0.048 C 
ATOM      2  C   UNL     1     -32.035   6.382   7.837  1.00  0.00    -0.008 A 
ATOM      3  C   UNL     1     -32.713   5.434   8.614  1.00  0.00    +0.019 A 
ATOM      4  C   UNL     1     -33.910   4.871   8.160  1.00  0.00    +0.023 A 
ATOM      5  C   UNL     1     -34.419   5.229   6.906  1.00  0.00    +0.019 A 
ATOM      6  C   UNL     1     -33.757   6.176   6.108  1.00  0.00    -0.008 A 
ATOM      7  C   UNL     1     -32.567   6.744   6.590  1.00  0.00    +0.121 A 
ATOM      8  C   UNL     1     -34.337   6.538   4.770  1.00  0.00    +0.048 C 
ENDROOT
BRANCH   7   9
ATOM      9  O   UNL     1     -31.866   7.670   5.866  1.00  0.00    -0.507 OA
ATOM     10  H   UNL     1     -31.694   8.453   6.409  1.00  0.00    +0.293 HD
ENDBRANCH   7   9
BRANCH   4  11
ATOM     11  C   UNL     1     -34.589   3.865   9.016  1.00  0.00    +0.193 C 
ATOM     12  O   UNL     1     -34.135   2.726   9.076  1.00  0.00    -0.289 OA
BRANCH  11  13
ATOM     13  C   UNL     1     -35.805   4.208   9.797  1.00  0.00    +0.022 A 
ATOM     14  C   UNL     1     -35.890   5.481  10.374  1.00  0.00    +0.012 A 
ATOM     15  C   UNL     1     -36.872   3.311   9.930  1.00  0.00    +0.012 A 
ATOM     16  C   UNL     1     -37.021   5.842  11.107  1.00  0.00    +0.001 A 
ATOM     17  C   UNL     1     -38.001   3.677  10.664  1.00  0.00    +0.001 A 
ATOM     18  C   UNL     1     -38.074   4.938  11.255  1.00  0.00    +0.000 A 
ENDBRANCH  11  13
ENDBRANCH   4  11
TORSDOF 3
ENDMDL
MODEL 9
REMARK VINA RESULT:    -7.236      6.442      9.759
REMARK INTER + INTRA:          -8.854
REMARK INTER:                  -8.327
REMARK INTRA:                  -0.526
REMARK UNBOUND:                -0.560
REMARK SMILES Cc1cc(C(=O)c2ccccc2)cc(C)c1O
REMARK SMILES IDX 1 1 2 2 3 3 4 4 13 5 14 6 16 7 15 8 17 9 5 11 6 12 7 13 8 14
REMARK SMILES IDX 12 15 9 16 11 17 10 18
REMARK H PARENT 17 10
ROOT
ATOM      1  C   UNL     1     -31.928   5.897   8.670  1.00  0.00    +0.048 C 
ATOM      2  C   UNL     1     -32.581   4.679   9.260  1.00  0.00    -0.008 A 
ATOM      3  C   UNL     1     -31.815   3.543   9.549  1.00  0.00    +0.019 A 
ATOM      4  C   UNL     1     -32.414   2.407  10.102  1.00  0.00    +0.023 A 
ATOM      5  C   UNL     1     -33.795   2.389  10.337  1.00  0.00    +0.019 A 
ATOM      6  C   UNL     1     -34.583   3.515  10.054  1.00  0.00    -0.008 A 
ATOM      7  C   UNL     1     -33.960   4.653   9.517  1.00  0.00    +0.121 A 
ATOM      8  C   UNL     1     -36.061   3.460  10.324  1.00  0.00    +0.048 C 
ENDROOT
BRANCH   7   9
ATOM      9  O   UNL     1     -34.666   5.785   9.213  1.00  0.00    -0.507 OA
ATOM     10  H   UNL     1     -34.079   6.556   9.230  1.00  0.00    +0.293 HD
ENDBRANCH   7   9
BRANCH   4  11
ATOM     11  C   UNL     1     -31.562   1.224  10.385  1.00  0.00    +0.193 C 
ATOM     12  O   UNL     1     -31.496   0.321   9.555  1.00  0.00    -0.289 OA
BRANCH  11  13
ATOM     13  C   UNL     1     -30.792   1.109  11.650  1.00  0.00    +0.022 A 
ATOM     14  C   UNL     1     -29.433   1.444  11.636  1.00  0.00    +0.012 A 
ATOM     15  C   UNL     1     -31.401   0.720  12.850  1.00  0.00    +0.012 A 
ATOM     16  C   UNL     1     -28.679   1.357  12.807  1.00  0.00    +0.001 A 
ATOM     17  C   UNL     1     -30.643   0.636  14.019  1.00  0.00    +0.001 A 
ATOM     18  C   UNL     1     -29.284   0.950  13.996  1.00  0.00    +0.000 A 
ENDBRANCH  11  13
ENDBRANCH   4  11
TORSDOF 3
ENDMDL
