MODEL 1
REMARK VINA RESULT:    -9.229      0.000      0.000
REMARK INTER + INTRA:          -9.715
REMARK INTER:                  -9.768
REMARK INTRA:                   0.053
REMARK UNBOUND:                 0.053
REMARK SMILES CC(=O)N1c2ccccc2Sc2c1ccc1ccccc21
REMARK SMILES IDX 1 1 2 2 3 3 4 4 5 5 13 6 10 7 6 8 12 9 14 10 11 11 9 12 7 13
REMARK SMILES IDX 21 14 15 15 8 16 16 17 20 18 17 19 19 20 18 21
REMARK H PARENT
ROOT
ATOM      1  C   UNL     1     -33.125   2.210  10.758  1.00  0.00    +0.115 C 
ATOM      2  C   UNL     1     -33.876   2.589   9.494  1.00  0.00    +0.228 C 
ATOM      3  O   UNL     1     -34.259   1.667   8.770  1.00  0.00    -0.274 OA
ENDROOT
BRANCH   2   4
ATOM      4  N   UNL     1     -34.163   3.955   9.313  1.00  0.00    -0.279 N 
ATOM      5  C   UNL     1     -35.451   4.521   9.619  1.00  0.00    +0.063 A 
ATOM      6  C   UNL     1     -33.146   4.894   8.884  1.00  0.00    +0.064 A 
ATOM      7  C   UNL     1     -35.992   5.576   8.872  1.00  0.00    +0.036 A 
ATOM      8  C   UNL     1     -36.178   4.060  10.731  1.00  0.00    +0.028 A 
ATOM      9  C   UNL     1     -33.446   6.021   8.077  1.00  0.00    +0.044 A 
ATOM     10  C   UNL     1     -31.811   4.716   9.269  1.00  0.00    +0.028 A 
ATOM     11  S   UNL     1     -35.130   6.241   7.479  1.00  0.00    -0.085 SA
ATOM     12  C   UNL     1     -37.252   6.104   9.193  1.00  0.00    +0.017 A 
ATOM     13  C   UNL     1     -37.429   4.593  11.056  1.00  0.00    +0.002 A 
ATOM     14  C   UNL     1     -32.427   6.947   7.665  1.00  0.00    -0.002 A 
ATOM     15  C   UNL     1     -30.808   5.604   8.878  1.00  0.00    +0.011 A 
ATOM     16  C   UNL     1     -37.970   5.610  10.279  1.00  0.00    +0.001 A 
ATOM     17  C   UNL     1     -31.097   6.714   8.085  1.00  0.00    -0.017 A 
ATOM     18  C   UNL     1     -32.648   8.093   6.856  1.00  0.00    +0.010 A 
ATOM     19  C   UNL     1     -30.063   7.590   7.709  1.00  0.00    +0.009 A 
ATOM     20  C   UNL     1     -31.612   8.958   6.488  1.00  0.00    +0.001 A 
ATOM     21  C   UNL     1     -30.317   8.705   6.917  1.00  0.00    +0.001 A 
ENDBRANCH   2   4
TORSDOF 1
ENDMDL
MODEL 2
REMARK VINA RESULT:    -9.103      8.034     11.231
REMARK INTER + INTRA:          -9.582
REMARK INTER:                  -9.404
REMARK INTRA:                  -0.178
REMARK UNBOUND:                 0.053
REMARK SMILES CC(=O)N1c2ccccc2Sc2c1ccc1ccccc21
REMARK SMILES IDX 1 1 2 2 3 3 4 4 5 5 13 6 10 7 6 8 12 9 14 10 11 11 9 12 7 13
REMARK SMILES IDX 21 14 15 15 8 16 16 17 20 18 17 19 19 20 18 21
REMARK H PARENT
ROOT
ATOM      1  C   UNL     1     -26.521   3.706   9.304  1.00  0.00    +0.115 C 
ATOM      2  C   UNL     1     -25.636   3.405  10.500  1.00  0.00    +0.228 C 
ATOM      3  O   UNL     1     -25.094   4.364  11.054  1.00  0.00    -0.274 OA
ENDROOT
BRANCH   2   4
ATOM      4  N   UNL     1     -25.595   2.067  10.938  1.00  0.00    -0.279 N 
ATOM      5  C   UNL     1     -24.445   1.225  10.743  1.00  0.00    +0.063 A 
ATOM      6  C   UNL     1     -26.688   1.483  11.691  1.00  0.00    +0.064 A 
ATOM      7  C   UNL     1     -24.567  -0.151  10.509  1.00  0.00    +0.036 A 
ATOM      8  C   UNL     1     -23.150   1.764  10.847  1.00  0.00    +0.028 A 
ATOM      9  C   UNL     1     -27.034   0.112  11.584  1.00  0.00    +0.044 A 
ATOM     10  C   UNL     1     -27.441   2.270  12.571  1.00  0.00    +0.028 A 
ATOM     11  S   UNL     1     -26.156  -0.919  10.397  1.00  0.00    -0.085 SA
ATOM     12  C   UNL     1     -23.426  -0.946  10.319  1.00  0.00    +0.017 A 
ATOM     13  C   UNL     1     -22.014   0.969  10.668  1.00  0.00    +0.002 A 
ATOM     14  C   UNL     1     -28.115  -0.454  12.342  1.00  0.00    -0.002 A 
ATOM     15  C   UNL     1     -28.495   1.738  13.316  1.00  0.00    +0.011 A 
ATOM     16  C   UNL     1     -22.153  -0.385  10.394  1.00  0.00    +0.001 A 
ATOM     17  C   UNL     1     -28.840   0.390  13.214  1.00  0.00    -0.017 A 
ATOM     18  C   UNL     1     -28.524  -1.813  12.286  1.00  0.00    +0.010 A 
ATOM     19  C   UNL     1     -29.907  -0.115  13.978  1.00  0.00    +0.009 A 
ATOM     20  C   UNL     1     -29.586  -2.305  13.051  1.00  0.00    +0.001 A 
ATOM     21  C   UNL     1     -30.278  -1.453  13.899  1.00  0.00    +0.001 A 
ENDBRANCH   2   4
TORSDOF 1
ENDMDL
MODEL 3
REMARK VINA RESULT:    -8.066      5.671      7.777
REMARK INTER + INTRA:          -8.485
REMARK INTER:                  -8.277
REMARK INTRA:                  -0.208
REMARK UNBOUND:                 0.053
REMARK SMILES CC(=O)N1c2ccccc2Sc2c1ccc1ccccc21
REMARK SMILES IDX 1 1 2 2 3 3 4 4 5 5 13 6 10 7 6 8 12 9 14 10 11 11 9 12 7 13
REMARK SMILES IDX 21 14 15 15 8 16 16 17 20 18 17 19 19 20 18 21
REMARK H PARENT
ROOT
ATOM      1  C   UNL     1     -33.229   1.781  12.341  1.00  0.00    +0.115 C 
ATOM      2  C   UNL     1     -32.392   0.745  11.612  1.00  0.00    +0.228 C 
ATOM      3  O   UNL     1     -32.889   0.223  10.612  1.00  0.00    -0.274 OA
ENDROOT
BRANCH   2   4
ATOM      4  N   UNL     1     -31.079   0.547  12.080  1.00  0.00    -0.279 N 
ATOM      5  C   UNL     1     -30.738  -0.496  13.010  1.00  0.00    +0.063 A 
ATOM      6  C   UNL     1     -29.970   1.338  11.582  1.00  0.00    +0.064 A 
ATOM      7  C   UNL     1     -29.738  -0.329  13.976  1.00  0.00    +0.036 A 
ATOM      8  C   UNL     1     -31.372  -1.750  12.926  1.00  0.00    +0.028 A 
ATOM      9  C   UNL     1     -28.858   1.678  12.393  1.00  0.00    +0.044 A 
ATOM     10  C   UNL     1     -29.962   1.789  10.256  1.00  0.00    +0.028 A 
ATOM     11  S   UNL     1     -28.866   1.202  14.130  1.00  0.00    -0.085 SA
ATOM     12  C   UNL     1     -29.432  -1.365  14.872  1.00  0.00    +0.017 A 
ATOM     13  C   UNL     1     -31.058  -2.785  13.813  1.00  0.00    +0.002 A 
ATOM     14  C   UNL     1     -27.763   2.457  11.884  1.00  0.00    -0.002 A 
ATOM     15  C   UNL     1     -28.907   2.546   9.744  1.00  0.00    +0.011 A 
ATOM     16  C   UNL     1     -30.094  -2.588  14.793  1.00  0.00    +0.001 A 
ATOM     17  C   UNL     1     -27.811   2.884  10.537  1.00  0.00    -0.017 A 
ATOM     18  C   UNL     1     -26.619   2.841  12.633  1.00  0.00    +0.010 A 
ATOM     19  C   UNL     1     -26.764   3.648   9.990  1.00  0.00    +0.009 A 
ATOM     20  C   UNL     1     -25.584   3.600  12.079  1.00  0.00    +0.001 A 
ATOM     21  C   UNL     1     -25.658   4.004  10.754  1.00  0.00    +0.001 A 
ENDBRANCH   2   4
TORSDOF 1
ENDMDL
MODEL 4
REMARK VINA RESULT:    -8.065      5.684      7.016
REMARK INTER + INTRA:          -8.483
REMARK INTER:                  -8.274
REMARK INTRA:                  -0.209
REMARK UNBOUND:                 0.053
REMARK SMILES CC(=O)N1c2ccccc2Sc2c1ccc1ccccc21
REMARK SMILES IDX 1 1 2 2 3 3 4 4 5 5 13 6 10 7 6 8 12 9 14 10 11 11 9 12 7 13
REMARK SMILES IDX 21 14 15 15 8 16 16 17 20 18 17 19 19 20 18 21
REMARK H PARENT
ROOT
ATOM      1  C   UNL     1     -27.720  -1.677  12.395  1.00  0.00    +0.115 C 
ATOM      2  C   UNL     1     -28.030  -0.427  13.198  1.00  0.00    +0.228 C 
ATOM      3  O   UNL     1     -27.704  -0.427  14.388  1.00  0.00    -0.274 OA
ENDROOT
BRANCH   2   4
ATOM      4  N   UNL     1     -28.568   0.665  12.490  1.00  0.00    -0.279 N 
ATOM      5  C   UNL     1     -29.982   0.924  12.426  1.00  0.00    +0.063 A 
ATOM      6  C   UNL     1     -27.715   1.647  11.849  1.00  0.00    +0.064 A 
ATOM      7  C   UNL     1     -30.582   1.477  11.287  1.00  0.00    +0.036 A 
ATOM      8  C   UNL     1     -30.795   0.681  13.548  1.00  0.00    +0.028 A 
ATOM      9  C   UNL     1     -28.089   2.310  10.654  1.00  0.00    +0.044 A 
ATOM     10  C   UNL     1     -26.476   1.981  12.410  1.00  0.00    +0.028 A 
ATOM     11  S   UNL     1     -29.629   1.846   9.844  1.00  0.00    -0.085 SA
ATOM     12  C   UNL     1     -31.965   1.714  11.254  1.00  0.00    +0.017 A 
ATOM     13  C   UNL     1     -32.171   0.928  13.517  1.00  0.00    +0.002 A 
ATOM     14  C   UNL     1     -27.236   3.286  10.033  1.00  0.00    -0.002 A 
ATOM     15  C   UNL     1     -25.634   2.927  11.822  1.00  0.00    +0.011 A 
ATOM     16  C   UNL     1     -32.757   1.436  12.365  1.00  0.00    +0.001 A 
ATOM     17  C   UNL     1     -25.997   3.582  10.646  1.00  0.00    -0.017 A 
ATOM     18  C   UNL     1     -27.538   3.988   8.836  1.00  0.00    +0.010 A 
ATOM     19  C   UNL     1     -25.125   4.530  10.079  1.00  0.00    +0.009 A 
ATOM     20  C   UNL     1     -26.664   4.928   8.282  1.00  0.00    +0.001 A 
ATOM     21  C   UNL     1     -25.455   5.199   8.906  1.00  0.00    +0.001 A 
ENDBRANCH   2   4
TORSDOF 1
ENDMDL
MODEL 5
REMARK VINA RESULT:    -7.974      5.592      8.702
REMARK INTER + INTRA:          -8.387
REMARK INTER:                  -8.179
REMARK INTRA:                  -0.208
REMARK UNBOUND:                 0.053
REMARK SMILES CC(=O)N1c2ccccc2Sc2c1ccc1ccccc21
REMARK SMILES IDX 1 1 2 2 3 3 4 4 5 5 13 6 10 7 6 8 12 9 14 10 11 11 9 12 7 13
REMARK SMILES IDX 21 14 15 15 8 16 16 17 20 18 17 19 19 20 18 21
REMARK H PARENT
ROOT
ATOM      1  C   UNL     1     -28.622  -1.206  14.199  1.00  0.00    +0.115 C 
ATOM      2  C   UNL     1     -28.558  -1.785  12.798  1.00  0.00    +0.228 C 
ATOM      3  O   UNL     1     -28.532  -3.014  12.698  1.00  0.00    -0.274 OA
ENDROOT
BRANCH   2   4
ATOM      4  N   UNL     1     -28.642  -0.872  11.730  1.00  0.00    -0.279 N 
ATOM      5  C   UNL     1     -27.489  -0.455  10.976  1.00  0.00    +0.063 A 
ATOM      6  C   UNL     1     -29.917  -0.358  11.269  1.00  0.00    +0.064 A 
ATOM      7  C   UNL     1     -27.374   0.839  10.452  1.00  0.00    +0.036 A 
ATOM      8  C   UNL     1     -26.462  -1.374  10.693  1.00  0.00    +0.028 A 
ATOM      9  C   UNL     1     -30.060   0.949  10.739  1.00  0.00    +0.044 A 
ATOM     10  C   UNL     1     -31.065  -1.158  11.329  1.00  0.00    +0.028 A 
ATOM     11  S   UNL     1     -28.634   2.048  10.730  1.00  0.00    -0.085 SA
ATOM     12  C   UNL     1     -26.235   1.215   9.725  1.00  0.00    +0.017 A 
ATOM     13  C   UNL     1     -25.332  -1.001   9.959  1.00  0.00    +0.002 A 
ATOM     14  C   UNL     1     -31.330   1.442  10.281  1.00  0.00    -0.002 A 
ATOM     15  C   UNL     1     -32.307  -0.697  10.888  1.00  0.00    +0.011 A 
ATOM     16  C   UNL     1     -25.214   0.299   9.483  1.00  0.00    +0.001 A 
ATOM     17  C   UNL     1     -32.453   0.588  10.366  1.00  0.00    -0.017 A 
ATOM     18  C   UNL     1     -31.555   2.737   9.743  1.00  0.00    +0.010 A 
ATOM     19  C   UNL     1     -33.718   1.022   9.931  1.00  0.00    +0.009 A 
ATOM     20  C   UNL     1     -32.817   3.158   9.313  1.00  0.00    +0.001 A 
ATOM     21  C   UNL     1     -33.900   2.298   9.408  1.00  0.00    +0.001 A 
ENDBRANCH   2   4
TORSDOF 1
ENDMDL
MODEL 6
REMARK VINA RESULT:    -7.847      3.021      5.781
REMARK INTER + INTRA:          -8.252
REMARK INTER:                  -8.046
REMARK INTRA:                  -0.206
REMARK UNBOUND:                 0.053
REMARK SMILES CC(=O)N1c2ccccc2Sc2c1ccc1ccccc21
REMARK SMILES IDX 1 1 2 2 3 3 4 4 5 5 13 6 10 7 6 8 12 9 14 10 11 11 9 12 7 13
REMARK SMILES IDX 21 14 15 15 8 16 16 17 20 18 17 19 19 20 18 21
REMARK H PARENT
ROOT
ATOM      1  C   UNL     1     -38.095   5.373   9.354  1.00  0.00    +0.115 C 
ATOM      2  C   UNL     1     -36.703   5.961   9.494  1.00  0.00    +0.228 C 
ATOM      3  O   UNL     1     -36.605   7.038  10.087  1.00  0.00    -0.274 OA
ENDROOT
BRANCH   2   4
ATOM      4  N   UNL     1     -35.632   5.175   9.029  1.00  0.00    -0.279 N 
ATOM      5  C   UNL     1     -35.102   5.300   7.698  1.00  0.00    +0.063 A 
ATOM      6  C   UNL     1     -34.940   4.244   9.900  1.00  0.00    +0.064 A 
ATOM      7  C   UNL     1     -34.599   4.198   6.994  1.00  0.00    +0.036 A 
ATOM      8  C   UNL     1     -35.019   6.565   7.088  1.00  0.00    +0.028 A 
ATOM      9  C   UNL     1     -34.384   3.031   9.423  1.00  0.00    +0.044 A 
ATOM     10  C   UNL     1     -34.792   4.528  11.264  1.00  0.00    +0.028 A 
ATOM     11  S   UNL     1     -34.631   2.576   7.698  1.00  0.00    -0.085 SA
ATOM     12  C   UNL     1     -34.093   4.353   5.694  1.00  0.00    +0.017 A 
ATOM     13  C   UNL     1     -34.505   6.720   5.797  1.00  0.00    +0.002 A 
ATOM     14  C   UNL     1     -33.696   2.121  10.297  1.00  0.00    -0.002 A 
ATOM     15  C   UNL     1     -34.126   3.657  12.128  1.00  0.00    +0.011 A 
ATOM     16  C   UNL     1     -34.050   5.610   5.096  1.00  0.00    +0.001 A 
ATOM     17  C   UNL     1     -33.577   2.462  11.664  1.00  0.00    -0.017 A 
ATOM     18  C   UNL     1     -33.117   0.887   9.896  1.00  0.00    +0.010 A 
ATOM     19  C   UNL     1     -32.913   1.607  12.561  1.00  0.00    +0.009 A 
ATOM     20  C   UNL     1     -32.458   0.045  10.796  1.00  0.00    +0.001 A 
ATOM     21  C   UNL     1     -32.357   0.406  12.132  1.00  0.00    +0.001 A 
ENDBRANCH   2   4
TORSDOF 1
ENDMDL
MODEL 7
REMARK VINA RESULT:    -7.708      4.986      7.898
REMARK INTER + INTRA:          -8.106
REMARK INTER:                  -7.916
REMARK INTRA:                  -0.190
REMARK UNBOUND:                 0.053
REMARK SMILES CC(=O)N1c2ccccc2Sc2c1ccc1ccccc21
REMARK SMILES IDX 1 1 2 2 3 3 4 4 5 5 13 6 10 7 6 8 12 9 14 10 11 11 9 12 7 13
REMARK SMILES IDX 21 14 15 15 8 16 16 17 20 18 17 19 19 20 18 21
REMARK H PARENT
ROOT
ATOM      1  C   UNL     1     -27.342  -0.299   9.851  1.00  0.00    +0.115 C 
ATOM      2  C   UNL     1     -27.547   0.699  10.977  1.00  0.00    +0.228 C 
ATOM      3  O   UNL     1     -26.635   1.503  11.189  1.00  0.00    -0.274 OA
ENDROOT
BRANCH   2   4
ATOM      4  N   UNL     1     -28.804   0.691  11.610  1.00  0.00    -0.279 N 
ATOM      5  C   UNL     1     -29.000   0.157  12.932  1.00  0.00    +0.063 A 
ATOM      6  C   UNL     1     -29.967   1.303  10.997  1.00  0.00    +0.064 A 
ATOM      7  C   UNL     1     -30.187  -0.488  13.301  1.00  0.00    +0.036 A 
ATOM      8  C   UNL     1     -28.009   0.328  13.916  1.00  0.00    +0.028 A 
ATOM      9  C   UNL     1     -31.277   0.796  11.186  1.00  0.00    +0.044 A 
ATOM     10  C   UNL     1     -29.826   2.438  10.189  1.00  0.00    +0.028 A 
ATOM     11  S   UNL     1     -31.499  -0.716  12.138  1.00  0.00    -0.085 SA
ATOM     12  C   UNL     1     -30.346  -1.002  14.597  1.00  0.00    +0.017 A 
ATOM     13  C   UNL     1     -28.173  -0.176  15.210  1.00  0.00    +0.002 A 
ATOM     14  C   UNL     1     -32.421   1.417  10.577  1.00  0.00    -0.002 A 
ATOM     15  C   UNL     1     -30.925   3.055   9.589  1.00  0.00    +0.011 A 
ATOM     16  C   UNL     1     -29.339  -0.850  15.547  1.00  0.00    +0.001 A 
ATOM     17  C   UNL     1     -32.216   2.561   9.772  1.00  0.00    -0.017 A 
ATOM     18  C   UNL     1     -33.762   0.968  10.715  1.00  0.00    +0.010 A 
ATOM     19  C   UNL     1     -33.302   3.206   9.153  1.00  0.00    +0.009 A 
ATOM     20  C   UNL     1     -34.834   1.617  10.095  1.00  0.00    +0.001 A 
ATOM     21  C   UNL     1     -34.602   2.738   9.313  1.00  0.00    +0.001 A 
ENDBRANCH   2   4
TORSDOF 1
ENDMDL
MODEL 8
REMARK VINA RESULT:    -7.669      8.090      8.884
REMARK INTER + INTRA:          -8.064
REMARK INTER:                  -8.978
REMARK INTRA:                   0.914
REMARK UNBOUND:                 0.053
REMARK SMILES CC(=O)N1c2ccccc2Sc2c1ccc1ccccc21
REMARK SMILES IDX 1 1 2 2 3 3 4 4 5 5 13 6 10 7 6 8 12 9 14 10 11 11 9 12 7 13
REMARK SMILES IDX 21 14 15 15 8 16 16 17 20 18 17 19 19 20 18 21
REMARK H PARENT
ROOT
ATOM      1  C   UNL     1     -31.108  -1.641  11.207  1.00  0.00    +0.115 C 
ATOM      2  C   UNL     1     -30.045  -0.780  10.550  1.00  0.00    +0.228 C 
ATOM      3  O   UNL     1     -30.170  -0.553   9.344  1.00  0.00    -0.274 OA
ENDROOT
BRANCH   2   4
ATOM      4  N   UNL     1     -29.066  -0.225  11.397  1.00  0.00    -0.279 N 
ATOM      5  C   UNL     1     -29.330   0.104  12.772  1.00  0.00    +0.063 A 
ATOM      6  C   UNL     1     -27.700  -0.030  10.951  1.00  0.00    +0.064 A 
ATOM      7  C   UNL     1     -28.725   1.200  13.400  1.00  0.00    +0.036 A 
ATOM      8  C   UNL     1     -30.170  -0.718  13.546  1.00  0.00    +0.028 A 
ATOM      9  C   UNL     1     -26.898   1.043  11.413  1.00  0.00    +0.044 A 
ATOM     10  C   UNL     1     -27.120  -0.921  10.038  1.00  0.00    +0.028 A 
ATOM     11  S   UNL     1     -27.629   2.268  12.513  1.00  0.00    -0.085 SA
ATOM     12  C   UNL     1     -29.007   1.498  14.743  1.00  0.00    +0.017 A 
ATOM     13  C   UNL     1     -30.441  -0.426  14.886  1.00  0.00    +0.002 A 
ATOM     14  C   UNL     1     -25.544   1.220  10.967  1.00  0.00    -0.002 A 
ATOM     15  C   UNL     1     -25.806  -0.766   9.594  1.00  0.00    +0.011 A 
ATOM     16  C   UNL     1     -29.866   0.689  15.482  1.00  0.00    +0.001 A 
ATOM     17  C   UNL     1     -25.012   0.288  10.046  1.00  0.00    -0.017 A 
ATOM     18  C   UNL     1     -24.680   2.270  11.380  1.00  0.00    +0.010 A 
ATOM     19  C   UNL     1     -23.692   0.416   9.578  1.00  0.00    +0.009 A 
ATOM     20  C   UNL     1     -23.369   2.387  10.909  1.00  0.00    +0.001 A 
ATOM     21  C   UNL     1     -22.875   1.457  10.006  1.00  0.00    +0.001 A 
ENDBRANCH   2   4
TORSDOF 1
ENDMDL
MODEL 9
REMARK VINA RESULT:    -7.578      2.321      6.762
REMARK INTER + INTRA:          -7.968
REMARK INTER:                  -7.968
REMARK INTRA:                  -0.000
REMARK UNBOUND:                 0.053
REMARK SMILES CC(=O)N1c2ccccc2Sc2c1ccc1ccccc21
REMARK SMILES IDX 1 1 2 2 3 3 4 4 5 5 13 6 10 7 6 8 12 9 14 10 11 11 9 12 7 13
REMARK SMILES IDX 21 14 15 15 8 16 16 17 20 18 17 19 19 20 18 21
REMARK H PARENT
ROOT
ATOM      1  C   UNL     1     -34.124   7.027   7.330  1.00  0.00    +0.115 C 
ATOM      2  C   UNL     1     -34.289   5.548   7.032  1.00  0.00    +0.228 C 
ATOM      3  O   UNL     1     -34.370   5.219   5.846  1.00  0.00    -0.274 OA
ENDROOT
BRANCH   2   4
ATOM      4  N   UNL     1     -34.227   4.668   8.130  1.00  0.00    -0.279 N 
ATOM      5  C   UNL     1     -32.981   4.191   8.668  1.00  0.00    +0.063 A 
ATOM      6  C   UNL     1     -35.422   4.257   8.840  1.00  0.00    +0.064 A 
ATOM      7  C   UNL     1     -32.852   2.905   9.208  1.00  0.00    +0.036 A 
ATOM      8  C   UNL     1     -31.862   5.042   8.719  1.00  0.00    +0.028 A 
ATOM      9  C   UNL     1     -35.545   2.976   9.435  1.00  0.00    +0.044 A 
ATOM     10  C   UNL     1     -36.506   5.134   8.968  1.00  0.00    +0.028 A 
ATOM     11  S   UNL     1     -34.217   1.780   9.217  1.00  0.00    -0.085 SA
ATOM     12  C   UNL     1     -31.622   2.467   9.722  1.00  0.00    +0.017 A 
ATOM     13  C   UNL     1     -30.639   4.608   9.241  1.00  0.00    +0.002 A 
ATOM     14  C   UNL     1     -36.734   2.584  10.142  1.00  0.00    -0.002 A 
ATOM     15  C   UNL     1     -37.668   4.771   9.651  1.00  0.00    +0.011 A 
ATOM     16  C   UNL     1     -30.517   3.315   9.734  1.00  0.00    +0.001 A 
ATOM     17  C   UNL     1     -37.796   3.513  10.238  1.00  0.00    -0.017 A 
ATOM     18  C   UNL     1     -36.935   1.321  10.760  1.00  0.00    +0.010 A 
ATOM     19  C   UNL     1     -38.980   3.179  10.919  1.00  0.00    +0.009 A 
ATOM     20  C   UNL     1     -38.117   1.000  11.435  1.00  0.00    +0.001 A 
ATOM     21  C   UNL     1     -39.141   1.932  11.514  1.00  0.00    +0.001 A 
ENDBRANCH   2   4
TORSDOF 1
ENDMDL
