REMARK SMILES NNC(=O)CCc1ccc2ccc3ccccc3c2c1
REMARK SMILES IDX 2 1 3 2 4 3 1 5 5 8 6 9 7 10 20 11 8 12 19 13 9 14 18 15
REMARK SMILES IDX 10 16 17 17 13 18 11 19 16 20 14 21 12 22 15 23
REMARK H PARENT 2 4 1 6 1 7
ROOT
ATOM      1  N   UNL     1       5.285   0.101  -0.840  1.00  0.00    -0.294 N 
ATOM      2  C   UNL     1       4.469   0.421   0.239  1.00  0.00    +0.234 C 
ATOM      3  O   UNL     1       4.846   1.111   1.183  1.00  0.00    -0.274 OA
ATOM      4  H   UNL     1       4.984  -0.584  -1.532  1.00  0.00    +0.184 HD
ENDROOT
BRANCH   1   5
ATOM      5  N   UNL     1       6.637   0.503  -0.829  1.00  0.00    -0.248 NA
ATOM      6  H   UNL     1       6.940   0.510   0.155  1.00  0.00    +0.143 HD
ATOM      7  H   UNL     1       6.662   1.497  -1.082  1.00  0.00    +0.143 HD
ENDBRANCH   1   5
BRANCH   2   8
ATOM      8  C   UNL     1       3.081  -0.168   0.115  1.00  0.00    +0.106 C 
BRANCH   8   9
ATOM      9  C   UNL     1       2.203   0.207   1.306  1.00  0.00    +0.045 C 
BRANCH   9  10
ATOM     10  C   UNL     1       0.822  -0.385   1.174  1.00  0.00    -0.047 A 
ATOM     11  C   UNL     1      -0.187   0.307   0.483  1.00  0.00    +0.013 A 
ATOM     12  C   UNL     1       0.535  -1.640   1.706  1.00  0.00    +0.004 A 
ATOM     13  C   UNL     1      -1.495  -0.217   0.307  1.00  0.00    -0.010 A 
ATOM     14  C   UNL     1      -0.737  -2.186   1.554  1.00  0.00    +0.009 A 
ATOM     15  C   UNL     1      -2.554   0.465  -0.394  1.00  0.00    -0.011 A 
ATOM     16  C   UNL     1      -1.747  -1.495   0.866  1.00  0.00    -0.018 A 
ATOM     17  C   UNL     1      -2.423   1.745  -0.992  1.00  0.00    +0.009 A 
ATOM     18  C   UNL     1      -3.823  -0.161  -0.509  1.00  0.00    -0.018 A 
ATOM     19  C   UNL     1      -3.010  -2.078   0.733  1.00  0.00    +0.009 A 
ATOM     20  C   UNL     1      -3.479   2.368  -1.663  1.00  0.00    +0.001 A 
ATOM     21  C   UNL     1      -4.877   0.476  -1.186  1.00  0.00    +0.009 A 
ATOM     22  C   UNL     1      -4.032  -1.421   0.056  1.00  0.00    +0.009 A 
ATOM     23  C   UNL     1      -4.707   1.733  -1.760  1.00  0.00    +0.001 A 
ENDBRANCH   9  10
ENDBRANCH   8   9
ENDBRANCH   2   8
TORSDOF 4
