MODEL 1
REMARK VINA RESULT:    -8.779      0.000      0.000
REMARK INTER + INTRA:         -14.497
REMARK INTER:                 -12.115
REMARK INTRA:                  -2.382
REMARK UNBOUND:                -2.382
REMARK SMILES C=CCC1(O)C(c2ccccc2)=C(c2ccccc2)C(c2ccccc2)=C1c1ccccc1
REMARK SMILES IDX 4 1 6 2 13 3 20 4 27 5 5 6 3 8 2 9 1 10 7 11 8 12 12 13 9 14
REMARK SMILES IDX 11 15 10 16 28 17 29 18 33 19 30 20 32 21 31 22 14 23 15 24
REMARK SMILES IDX 19 25 16 26 18 27 17 28 21 29 22 30 26 31 23 32 25 33 24 34
REMARK H PARENT 5 7
ROOT
ATOM      1  C   UNL     1     -28.614   1.475  11.167  1.00  0.00    +0.120 C 
ATOM      2  C   UNL     1     -29.863   0.682  11.522  1.00  0.00    +0.004 C 
ATOM      3  C   UNL     1     -29.561  -0.626  11.671  1.00  0.00    -0.003 C 
ATOM      4  C   UNL     1     -28.130  -0.825  11.421  1.00  0.00    -0.003 C 
ATOM      5  C   UNL     1     -27.563   0.367  11.122  1.00  0.00    +0.004 C 
ENDROOT
BRANCH   1   6
ATOM      6  O   UNL     1     -28.757   2.037   9.861  1.00  0.00    -0.380 OA
ATOM      7  H   UNL     1     -27.973   2.591   9.719  1.00  0.00    +0.212 HD
ENDBRANCH   1   6
BRANCH   1   8
ATOM      8  C   UNL     1     -28.203   2.568  12.198  1.00  0.00    +0.072 C 
BRANCH   8   9
ATOM      9  C   UNL     1     -27.894   2.092  13.599  1.00  0.00    -0.031 C 
ATOM     10  C   UNL     1     -28.814   1.631  14.456  1.00  0.00    +0.004 C 
ENDBRANCH   8   9
ENDBRANCH   1   8
BRANCH   2  11
ATOM     11  C   UNL     1     -31.207   1.259  11.564  1.00  0.00    -0.019 A 
ATOM     12  C   UNL     1     -31.945   1.271  12.752  1.00  0.00    +0.008 A 
ATOM     13  C   UNL     1     -31.789   1.765  10.393  1.00  0.00    +0.008 A 
ATOM     14  C   UNL     1     -33.234   1.806  12.778  1.00  0.00    +0.001 A 
ATOM     15  C   UNL     1     -33.078   2.300  10.419  1.00  0.00    +0.001 A 
ATOM     16  C   UNL     1     -33.798   2.325  11.612  1.00  0.00    +0.000 A 
ENDBRANCH   2  11
BRANCH   5  17
ATOM     17  C   UNL     1     -26.147   0.631  10.818  1.00  0.00    -0.019 A 
ATOM     18  C   UNL     1     -25.730   0.923   9.514  1.00  0.00    +0.008 A 
ATOM     19  C   UNL     1     -25.187   0.613  11.840  1.00  0.00    +0.008 A 
ATOM     20  C   UNL     1     -24.386   1.187   9.235  1.00  0.00    +0.001 A 
ATOM     21  C   UNL     1     -23.843   0.875  11.563  1.00  0.00    +0.001 A 
ATOM     22  C   UNL     1     -23.443   1.163  10.259  1.00  0.00    +0.000 A 
ENDBRANCH   5  17
BRANCH   3  23
ATOM     23  C   UNL     1     -30.543  -1.683  11.942  1.00  0.00    -0.017 A 
ATOM     24  C   UNL     1     -31.537  -1.992  11.005  1.00  0.00    +0.009 A 
ATOM     25  C   UNL     1     -30.506  -2.382  13.155  1.00  0.00    +0.009 A 
ATOM     26  C   UNL     1     -32.474  -2.991  11.275  1.00  0.00    +0.001 A 
ATOM     27  C   UNL     1     -31.444  -3.379  13.424  1.00  0.00    +0.001 A 
ATOM     28  C   UNL     1     -32.426  -3.684  12.484  1.00  0.00    +0.000 A 
ENDBRANCH   3  23
BRANCH   4  29
ATOM     29  C   UNL     1     -27.430  -2.120  11.448  1.00  0.00    -0.017 A 
ATOM     30  C   UNL     1     -26.495  -2.440  10.455  1.00  0.00    +0.009 A 
ATOM     31  C   UNL     1     -27.675  -3.043  12.474  1.00  0.00    +0.009 A 
ATOM     32  C   UNL     1     -25.824  -3.664  10.483  1.00  0.00    +0.001 A 
ATOM     33  C   UNL     1     -27.004  -4.267  12.500  1.00  0.00    +0.001 A 
ATOM     34  C   UNL     1     -26.078  -4.577  11.505  1.00  0.00    +0.000 A 
ENDBRANCH   4  29
TORSDOF 7
ENDMDL
MODEL 2
REMARK VINA RESULT:    -8.232      4.736      8.213
REMARK INTER + INTRA:         -13.742
REMARK INTER:                 -11.628
REMARK INTRA:                  -2.114
REMARK UNBOUND:                -2.382
REMARK SMILES C=CCC1(O)C(c2ccccc2)=C(c2ccccc2)C(c2ccccc2)=C1c1ccccc1
REMARK SMILES IDX 4 1 6 2 13 3 20 4 27 5 5 6 3 8 2 9 1 10 7 11 8 12 12 13 9 14
REMARK SMILES IDX 11 15 10 16 28 17 29 18 33 19 30 20 32 21 31 22 14 23 15 24
REMARK SMILES IDX 19 25 16 26 18 27 17 28 21 29 22 30 26 31 23 32 25 33 24 34
REMARK H PARENT 5 7
ROOT
ATOM      1  C   UNL     1     -35.726   4.083   8.532  1.00  0.00    +0.120 C 
ATOM      2  C   UNL     1     -35.504   3.188   9.742  1.00  0.00    +0.004 C 
ATOM      3  C   UNL     1     -34.191   3.137  10.052  1.00  0.00    -0.003 C 
ATOM      4  C   UNL     1     -33.435   3.954   9.099  1.00  0.00    -0.003 C 
ATOM      5  C   UNL     1     -34.293   4.503   8.209  1.00  0.00    +0.004 C 
ENDROOT
BRANCH   1   6
ATOM      6  O   UNL     1     -36.241   3.307   7.448  1.00  0.00    -0.380 OA
ATOM      7  H   UNL     1     -35.502   3.185   6.830  1.00  0.00    +0.212 HD
ENDBRANCH   1   6
BRANCH   1   8
ATOM      8  C   UNL     1     -36.613   5.338   8.784  1.00  0.00    +0.072 C 
BRANCH   8   9
ATOM      9  C   UNL     1     -36.219   6.221   9.946  1.00  0.00    -0.031 C 
ATOM     10  C   UNL     1     -37.052   6.586  10.930  1.00  0.00    +0.004 C 
ENDBRANCH   8   9
ENDBRANCH   1   8
BRANCH   2  11
ATOM     11  C   UNL     1     -36.565   2.407  10.379  1.00  0.00    -0.019 A 
ATOM     12  C   UNL     1     -36.503   1.010  10.415  1.00  0.00    +0.008 A 
ATOM     13  C   UNL     1     -37.685   3.055  10.919  1.00  0.00    +0.008 A 
ATOM     14  C   UNL     1     -37.529   0.272  11.008  1.00  0.00    +0.001 A 
ATOM     15  C   UNL     1     -38.711   2.317  11.511  1.00  0.00    +0.001 A 
ATOM     16  C   UNL     1     -38.631   0.927  11.560  1.00  0.00    +0.000 A 
ENDBRANCH   2  11
BRANCH   5  17
ATOM     17  C   UNL     1     -33.965   5.404   7.092  1.00  0.00    -0.019 A 
ATOM     18  C   UNL     1     -33.536   6.717   7.324  1.00  0.00    +0.008 A 
ATOM     19  C   UNL     1     -34.058   4.955   5.766  1.00  0.00    +0.008 A 
ATOM     20  C   UNL     1     -33.213   7.563   6.259  1.00  0.00    +0.001 A 
ATOM     21  C   UNL     1     -33.735   5.800   4.701  1.00  0.00    +0.001 A 
ATOM     22  C   UNL     1     -33.312   7.103   4.949  1.00  0.00    +0.000 A 
ENDBRANCH   5  17
BRANCH   3  23
ATOM     23  C   UNL     1     -33.618   2.307  11.120  1.00  0.00    -0.017 A 
ATOM     24  C   UNL     1     -33.590   2.764  12.443  1.00  0.00    +0.009 A 
ATOM     25  C   UNL     1     -33.074   1.052  10.818  1.00  0.00    +0.009 A 
ATOM     26  C   UNL     1     -33.034   1.973  13.451  1.00  0.00    +0.001 A 
ATOM     27  C   UNL     1     -32.518   0.264  11.826  1.00  0.00    +0.001 A 
ATOM     28  C   UNL     1     -32.500   0.724  13.141  1.00  0.00    +0.000 A 
ENDBRANCH   3  23
BRANCH   4  29
ATOM     29  C   UNL     1     -31.971   4.115   9.085  1.00  0.00    -0.017 A 
ATOM     30  C   UNL     1     -31.400   5.369   8.835  1.00  0.00    +0.009 A 
ATOM     31  C   UNL     1     -31.130   3.023   9.340  1.00  0.00    +0.009 A 
ATOM     32  C   UNL     1     -30.013   5.527   8.830  1.00  0.00    +0.001 A 
ATOM     33  C   UNL     1     -29.742   3.182   9.334  1.00  0.00    +0.001 A 
ATOM     34  C   UNL     1     -29.184   4.433   9.079  1.00  0.00    +0.000 A 
ENDBRANCH   4  29
TORSDOF 7
ENDMDL
MODEL 3
REMARK VINA RESULT:    -8.081      2.314      5.844
REMARK INTER + INTRA:         -13.534
REMARK INTER:                 -11.488
REMARK INTRA:                  -2.047
REMARK UNBOUND:                -2.382
REMARK SMILES C=CCC1(O)C(c2ccccc2)=C(c2ccccc2)C(c2ccccc2)=C1c1ccccc1
REMARK SMILES IDX 4 1 6 2 13 3 20 4 27 5 5 6 3 8 2 9 1 10 7 11 8 12 12 13 9 14
REMARK SMILES IDX 11 15 10 16 28 17 29 18 33 19 30 20 32 21 31 22 14 23 15 24
REMARK SMILES IDX 19 25 16 26 18 27 17 28 21 29 22 30 26 31 23 32 25 33 24 34
REMARK H PARENT 5 7
ROOT
ATOM      1  C   UNL     1     -31.481   0.522  11.109  1.00  0.00    +0.120 C 
ATOM      2  C   UNL     1     -31.826   1.813  10.381  1.00  0.00    +0.004 C 
ATOM      3  C   UNL     1     -30.706   2.532  10.148  1.00  0.00    -0.003 C 
ATOM      4  C   UNL     1     -29.549   1.819  10.696  1.00  0.00    -0.003 C 
ATOM      5  C   UNL     1     -29.968   0.663  11.261  1.00  0.00    +0.004 C 
ENDROOT
BRANCH   1   6
ATOM      6  O   UNL     1     -32.084   0.526  12.405  1.00  0.00    -0.380 OA
ATOM      7  H   UNL     1     -32.323   1.449  12.587  1.00  0.00    +0.212 HD
ENDBRANCH   1   6
BRANCH   1   8
ATOM      8  C   UNL     1     -31.827  -0.789  10.343  1.00  0.00    +0.072 C 
BRANCH   8   9
ATOM      9  C   UNL     1     -32.499  -1.881  11.144  1.00  0.00    -0.031 C 
ATOM     10  C   UNL     1     -31.843  -2.775  11.896  1.00  0.00    +0.004 C 
ENDBRANCH   8   9
ENDBRANCH   1   8
BRANCH   2  11
ATOM     11  C   UNL     1     -33.195   2.246  10.100  1.00  0.00    -0.019 A 
ATOM     12  C   UNL     1     -33.754   2.073   8.830  1.00  0.00    +0.008 A 
ATOM     13  C   UNL     1     -33.946   2.886  11.095  1.00  0.00    +0.008 A 
ATOM     14  C   UNL     1     -35.054   2.506   8.565  1.00  0.00    +0.001 A 
ATOM     15  C   UNL     1     -35.245   3.320  10.830  1.00  0.00    +0.001 A 
ATOM     16  C   UNL     1     -35.801   3.126   9.567  1.00  0.00    +0.000 A 
ENDBRANCH   2  11
BRANCH   5  17
ATOM     17  C   UNL     1     -29.138  -0.363  11.914  1.00  0.00    -0.019 A 
ATOM     18  C   UNL     1     -29.158  -0.531  13.304  1.00  0.00    +0.008 A 
ATOM     19  C   UNL     1     -28.322  -1.209  11.149  1.00  0.00    +0.008 A 
ATOM     20  C   UNL     1     -28.379  -1.517  13.916  1.00  0.00    +0.001 A 
ATOM     21  C   UNL     1     -27.542  -2.194  11.760  1.00  0.00    +0.001 A 
ATOM     22  C   UNL     1     -27.572  -2.348  13.144  1.00  0.00    +0.000 A 
ENDBRANCH   5  17
BRANCH   3  23
ATOM     23  C   UNL     1     -30.685   3.864   9.531  1.00  0.00    -0.017 A 
ATOM     24  C   UNL     1     -29.503   4.380   8.986  1.00  0.00    +0.009 A 
ATOM     25  C   UNL     1     -31.850   4.642   9.500  1.00  0.00    +0.009 A 
ATOM     26  C   UNL     1     -29.489   5.652   8.409  1.00  0.00    +0.001 A 
ATOM     27  C   UNL     1     -31.833   5.913   8.926  1.00  0.00    +0.001 A 
ATOM     28  C   UNL     1     -30.654   6.417   8.380  1.00  0.00    +0.000 A 
ENDBRANCH   3  23
BRANCH   4  29
ATOM     29  C   UNL     1     -28.159   2.305  10.674  1.00  0.00    -0.017 A 
ATOM     30  C   UNL     1     -27.609   2.927  11.803  1.00  0.00    +0.009 A 
ATOM     31  C   UNL     1     -27.360   2.135   9.535  1.00  0.00    +0.009 A 
ATOM     32  C   UNL     1     -26.289   3.380  11.788  1.00  0.00    +0.001 A 
ATOM     33  C   UNL     1     -26.040   2.590   9.521  1.00  0.00    +0.001 A 
ATOM     34  C   UNL     1     -25.505   3.212  10.647  1.00  0.00    +0.000 A 
ENDBRANCH   4  29
TORSDOF 7
ENDMDL
MODEL 4
REMARK VINA RESULT:    -7.514     17.053     20.894
REMARK INTER + INTRA:         -12.752
REMARK INTER:                  -9.314
REMARK INTRA:                  -3.438
REMARK UNBOUND:                -2.382
REMARK SMILES C=CCC1(O)C(c2ccccc2)=C(c2ccccc2)C(c2ccccc2)=C1c1ccccc1
REMARK SMILES IDX 4 1 6 2 13 3 20 4 27 5 5 6 3 8 2 9 1 10 7 11 8 12 12 13 9 14
REMARK SMILES IDX 11 15 10 16 28 17 29 18 33 19 30 20 32 21 31 22 14 23 15 24
REMARK SMILES IDX 19 25 16 26 18 27 17 28 21 29 22 30 26 31 23 32 25 33 24 34
REMARK H PARENT 5 7
ROOT
ATOM      1  C   UNL     1     -16.655  14.837  14.136  1.00  0.00    +0.120 C 
ATOM      2  C   UNL     1     -17.481  14.607  15.394  1.00  0.00    +0.004 C 
ATOM      3  C   UNL     1     -18.012  15.772  15.824  1.00  0.00    -0.003 C 
ATOM      4  C   UNL     1     -17.590  16.857  14.932  1.00  0.00    -0.003 C 
ATOM      5  C   UNL     1     -16.802  16.347  13.958  1.00  0.00    +0.004 C 
ENDROOT
BRANCH   1   6
ATOM      6  O   UNL     1     -15.285  14.529  14.399  1.00  0.00    -0.380 OA
ATOM      7  H   UNL     1     -15.281  13.650  14.813  1.00  0.00    +0.212 HD
ENDBRANCH   1   6
BRANCH   1   8
ATOM      8  C   UNL     1     -17.155  14.090  12.864  1.00  0.00    +0.072 C 
BRANCH   8   9
ATOM      9  C   UNL     1     -16.167  13.164  12.194  1.00  0.00    -0.031 C 
ATOM     10  C   UNL     1     -16.019  11.869  12.505  1.00  0.00    +0.004 C 
ENDBRANCH   8   9
ENDBRANCH   1   8
BRANCH   2  11
ATOM     11  C   UNL     1     -17.565  13.321  16.086  1.00  0.00    -0.019 A 
ATOM     12  C   UNL     1     -18.755  12.586  16.089  1.00  0.00    +0.008 A 
ATOM     13  C   UNL     1     -16.460  12.835  16.799  1.00  0.00    +0.008 A 
ATOM     14  C   UNL     1     -18.832  11.369  16.768  1.00  0.00    +0.001 A 
ATOM     15  C   UNL     1     -16.538  11.618  17.478  1.00  0.00    +0.001 A 
ATOM     16  C   UNL     1     -17.722  10.884  17.459  1.00  0.00    +0.000 A 
ENDBRANCH   2  11
BRANCH   5  17
ATOM     17  C   UNL     1     -16.175  17.077  12.844  1.00  0.00    -0.019 A 
ATOM     18  C   UNL     1     -15.123  17.973  13.069  1.00  0.00    +0.008 A 
ATOM     19  C   UNL     1     -16.610  16.872  11.526  1.00  0.00    +0.008 A 
ATOM     20  C   UNL     1     -14.522  18.652  12.005  1.00  0.00    +0.001 A 
ATOM     21  C   UNL     1     -16.011  17.552  10.462  1.00  0.00    +0.001 A 
ATOM     22  C   UNL     1     -14.966  18.441  10.703  1.00  0.00    +0.000 A 
ENDBRANCH   5  17
BRANCH   3  23
ATOM     23  C   UNL     1     -18.803  15.924  17.052  1.00  0.00    -0.017 A 
ATOM     24  C   UNL     1     -18.173  16.078  18.293  1.00  0.00    +0.009 A 
ATOM     25  C   UNL     1     -20.202  15.896  16.993  1.00  0.00    +0.009 A 
ATOM     26  C   UNL     1     -18.932  16.212  19.457  1.00  0.00    +0.001 A 
ATOM     27  C   UNL     1     -20.958  16.028  18.158  1.00  0.00    +0.001 A 
ATOM     28  C   UNL     1     -20.324  16.187  19.389  1.00  0.00    +0.000 A 
ENDBRANCH   3  23
BRANCH   4  29
ATOM     29  C   UNL     1     -17.932  18.279  15.097  1.00  0.00    -0.017 A 
ATOM     30  C   UNL     1     -19.150  18.774  14.614  1.00  0.00    +0.009 A 
ATOM     31  C   UNL     1     -17.056  19.154  15.755  1.00  0.00    +0.009 A 
ATOM     32  C   UNL     1     -19.482  20.121  14.777  1.00  0.00    +0.001 A 
ATOM     33  C   UNL     1     -17.388  20.500  15.915  1.00  0.00    +0.001 A 
ATOM     34  C   UNL     1     -18.601  20.983  15.426  1.00  0.00    +0.000 A 
ENDBRANCH   4  29
TORSDOF 7
ENDMDL
MODEL 5
REMARK VINA RESULT:    -7.499     16.790     20.584
REMARK INTER + INTRA:         -12.731
REMARK INTER:                  -9.105
REMARK INTRA:                  -3.627
REMARK UNBOUND:                -2.382
REMARK SMILES C=CCC1(O)C(c2ccccc2)=C(c2ccccc2)C(c2ccccc2)=C1c1ccccc1
REMARK SMILES IDX 4 1 6 2 13 3 20 4 27 5 5 6 3 8 2 9 1 10 7 11 8 12 12 13 9 14
REMARK SMILES IDX 11 15 10 16 28 17 29 18 33 19 30 20 32 21 31 22 14 23 15 24
REMARK SMILES IDX 19 25 16 26 18 27 17 28 21 29 22 30 26 31 23 32 25 33 24 34
REMARK H PARENT 5 7
ROOT
ATOM      1  C   UNL     1     -18.373  15.793  16.393  1.00  0.00    +0.120 C 
ATOM      2  C   UNL     1     -17.815  16.813  15.411  1.00  0.00    +0.004 C 
ATOM      3  C   UNL     1     -17.124  16.190  14.431  1.00  0.00    -0.003 C 
ATOM      4  C   UNL     1     -17.142  14.743  14.670  1.00  0.00    -0.003 C 
ATOM      5  C   UNL     1     -17.848  14.489  15.796  1.00  0.00    +0.004 C 
ENDROOT
BRANCH   1   6
ATOM      6  O   UNL     1     -17.781  15.991  17.678  1.00  0.00    -0.380 OA
ATOM      7  H   UNL     1     -18.348  15.519  18.311  1.00  0.00    +0.212 HD
ENDBRANCH   1   6
BRANCH   1   8
ATOM      8  C   UNL     1     -19.927  15.751  16.500  1.00  0.00    +0.072 C 
BRANCH   8   9
ATOM      9  C   UNL     1     -20.530  16.308  17.769  1.00  0.00    -0.031 C 
ATOM     10  C   UNL     1     -20.513  17.605  18.104  1.00  0.00    +0.004 C 
ENDBRANCH   8   9
ENDBRANCH   1   8
BRANCH   2  11
ATOM     11  C   UNL     1     -17.919  18.260  15.596  1.00  0.00    -0.019 A 
ATOM     12  C   UNL     1     -17.002  18.948  16.397  1.00  0.00    +0.008 A 
ATOM     13  C   UNL     1     -18.977  18.968  15.008  1.00  0.00    +0.008 A 
ATOM     14  C   UNL     1     -17.120  20.326  16.584  1.00  0.00    +0.001 A 
ATOM     15  C   UNL     1     -19.096  20.345  15.195  1.00  0.00    +0.001 A 
ATOM     16  C   UNL     1     -18.165  21.025  15.979  1.00  0.00    +0.000 A 
ENDBRANCH   2  11
BRANCH   5  17
ATOM     17  C   UNL     1     -18.131  13.174  16.394  1.00  0.00    -0.019 A 
ATOM     18  C   UNL     1     -17.155  12.490  17.129  1.00  0.00    +0.008 A 
ATOM     19  C   UNL     1     -19.397  12.587  16.254  1.00  0.00    +0.008 A 
ATOM     20  C   UNL     1     -17.434  11.248  17.707  1.00  0.00    +0.001 A 
ATOM     21  C   UNL     1     -19.677  11.346  16.830  1.00  0.00    +0.001 A 
ATOM     22  C   UNL     1     -18.695  10.677  17.557  1.00  0.00    +0.000 A 
ENDBRANCH   5  17
BRANCH   3  23
ATOM     23  C   UNL     1     -16.392  16.878  13.360  1.00  0.00    -0.017 A 
ATOM     24  C   UNL     1     -15.205  17.567  13.635  1.00  0.00    +0.009 A 
ATOM     25  C   UNL     1     -16.890  16.867  12.051  1.00  0.00    +0.009 A 
ATOM     26  C   UNL     1     -14.520  18.228  12.613  1.00  0.00    +0.001 A 
ATOM     27  C   UNL     1     -16.206  17.529  11.032  1.00  0.00    +0.001 A 
ATOM     28  C   UNL     1     -15.021  18.208  11.312  1.00  0.00    +0.000 A 
ENDBRANCH   3  23
BRANCH   4  29
ATOM     29  C   UNL     1     -16.464  13.733  13.840  1.00  0.00    -0.017 A 
ATOM     30  C   UNL     1     -15.202  13.249  14.207  1.00  0.00    +0.009 A 
ATOM     31  C   UNL     1     -17.077  13.228  12.685  1.00  0.00    +0.009 A 
ATOM     32  C   UNL     1     -14.560  12.284  13.427  1.00  0.00    +0.001 A 
ATOM     33  C   UNL     1     -16.433  12.265  11.906  1.00  0.00    +0.001 A 
ATOM     34  C   UNL     1     -15.175  11.793  12.277  1.00  0.00    +0.000 A 
ENDBRANCH   4  29
TORSDOF 7
ENDMDL
MODEL 6
REMARK VINA RESULT:    -6.955     16.784     20.867
REMARK INTER + INTRA:         -11.980
REMARK INTER:                  -8.247
REMARK INTRA:                  -3.733
REMARK UNBOUND:                -2.382
REMARK SMILES C=CCC1(O)C(c2ccccc2)=C(c2ccccc2)C(c2ccccc2)=C1c1ccccc1
REMARK SMILES IDX 4 1 6 2 13 3 20 4 27 5 5 6 3 8 2 9 1 10 7 11 8 12 12 13 9 14
REMARK SMILES IDX 11 15 10 16 28 17 29 18 33 19 30 20 32 21 31 22 14 23 15 24
REMARK SMILES IDX 19 25 16 26 18 27 17 28 21 29 22 30 26 31 23 32 25 33 24 34
REMARK H PARENT 5 7
ROOT
ATOM      1  C   UNL     1     -16.947  14.338  14.730  1.00  0.00    +0.120 C 
ATOM      2  C   UNL     1     -16.867  15.849  14.570  1.00  0.00    +0.004 C 
ATOM      3  C   UNL     1     -17.534  16.461  15.572  1.00  0.00    -0.003 C 
ATOM      4  C   UNL     1     -18.117  15.449  16.457  1.00  0.00    -0.003 C 
ATOM      5  C   UNL     1     -17.800  14.219  15.991  1.00  0.00    +0.004 C 
ENDROOT
BRANCH   1   6
ATOM      6  O   UNL     1     -17.661  13.776  13.627  1.00  0.00    -0.380 OA
ATOM      7  H   UNL     1     -18.601  13.948  13.799  1.00  0.00    +0.212 HD
ENDBRANCH   1   6
BRANCH   1   8
ATOM      8  C   UNL     1     -15.582  13.615  14.930  1.00  0.00    +0.072 C 
BRANCH   8   9
ATOM      9  C   UNL     1     -15.329  12.400  14.068  1.00  0.00    -0.031 C 
ATOM     10  C   UNL     1     -15.601  11.142  14.442  1.00  0.00    +0.004 C 
ENDBRANCH   8   9
ENDBRANCH   1   8
BRANCH   2  11
ATOM     11  C   UNL     1     -16.257  16.513  13.417  1.00  0.00    -0.019 A 
ATOM     12  C   UNL     1     -16.764  16.318  12.128  1.00  0.00    +0.008 A 
ATOM     13  C   UNL     1     -15.122  17.315  13.591  1.00  0.00    +0.008 A 
ATOM     14  C   UNL     1     -16.164  16.940  11.032  1.00  0.00    +0.001 A 
ATOM     15  C   UNL     1     -14.522  17.936  12.494  1.00  0.00    +0.001 A 
ATOM     16  C   UNL     1     -15.045  17.753  11.216  1.00  0.00    +0.000 A 
ENDBRANCH   2  11
BRANCH   5  17
ATOM     17  C   UNL     1     -18.166  12.919  16.580  1.00  0.00    -0.019 A 
ATOM     18  C   UNL     1     -17.296  12.251  17.449  1.00  0.00    +0.008 A 
ATOM     19  C   UNL     1     -19.407  12.334  16.293  1.00  0.00    +0.008 A 
ATOM     20  C   UNL     1     -17.655  11.024  18.016  1.00  0.00    +0.001 A 
ATOM     21  C   UNL     1     -19.767  11.108  16.859  1.00  0.00    +0.001 A 
ATOM     22  C   UNL     1     -18.890  10.454  17.721  1.00  0.00    +0.000 A 
ENDBRANCH   5  17
BRANCH   3  23
ATOM     23  C   UNL     1     -17.720  17.914  15.684  1.00  0.00    -0.017 A 
ATOM     24  C   UNL     1     -16.814  18.696  16.411  1.00  0.00    +0.009 A 
ATOM     25  C   UNL     1     -18.823  18.529  15.078  1.00  0.00    +0.009 A 
ATOM     26  C   UNL     1     -17.004  20.075  16.522  1.00  0.00    +0.001 A 
ATOM     27  C   UNL     1     -19.011  19.906  15.191  1.00  0.00    +0.001 A 
ATOM     28  C   UNL     1     -18.102  20.679  15.911  1.00  0.00    +0.000 A 
ENDBRANCH   3  23
BRANCH   4  29
ATOM     29  C   UNL     1     -18.950  15.726  17.639  1.00  0.00    -0.017 A 
ATOM     30  C   UNL     1     -18.393  15.679  18.924  1.00  0.00    +0.009 A 
ATOM     31  C   UNL     1     -20.304  16.057  17.497  1.00  0.00    +0.009 A 
ATOM     32  C   UNL     1     -19.178  15.950  20.046  1.00  0.00    +0.001 A 
ATOM     33  C   UNL     1     -21.089  16.327  18.620  1.00  0.00    +0.001 A 
ATOM     34  C   UNL     1     -20.525  16.273  19.894  1.00  0.00    +0.000 A 
ENDBRANCH   4  29
TORSDOF 7
ENDMDL
