REMARK SMILES NNC(=S)NN=Cc1ccnc2ccccc12
REMARK SMILES IDX 2 1 3 2 4 3 5 4 1 7 6 10 7 11 8 12 17 13 9 14 16 15 12 16
REMARK SMILES IDX 10 17 15 18 13 19 11 20 14 21
REMARK H PARENT 2 5 5 6 1 8 1 9
ROOT
ATOM      1  N   UNL     1      -3.007  -0.752   1.667  1.00  0.00    -0.300 N 
ATOM      2  C   UNL     1      -3.405   0.566   1.554  1.00  0.00    +0.201 C 
ATOM      3  S   UNL     1      -4.788   1.236   2.208  1.00  0.00    -0.038 S 
ATOM      4  N   UNL     1      -2.536   1.351   0.827  1.00  0.00    -0.253 N 
ATOM      5  H   UNL     1      -2.175  -1.000   1.129  1.00  0.00    +0.184 HD
ATOM      6  H   UNL     1      -2.769   2.332   0.707  1.00  0.00    +0.193 HD
ENDROOT
BRANCH   1   7
ATOM      7  N   UNL     1      -3.772  -1.746   2.301  1.00  0.00    -0.249 NA
ATOM      8  H   UNL     1      -4.713  -1.716   1.897  1.00  0.00    +0.143 HD
ATOM      9  H   UNL     1      -3.906  -1.455   3.274  1.00  0.00    +0.143 HD
ENDBRANCH   1   7
BRANCH   4  10
ATOM     10  N   UNL     1      -1.386   0.834   0.301  1.00  0.00    -0.181 NA
ATOM     11  C   UNL     1      -0.670   1.670  -0.380  1.00  0.00    +0.142 C 
BRANCH  11  12
ATOM     12  C   UNL     1       0.605   1.302  -1.039  1.00  0.00    +0.005 A 
ATOM     13  C   UNL     1       1.450   0.239  -0.624  1.00  0.00    +0.009 A 
ATOM     14  C   UNL     1       0.940   2.090  -2.141  1.00  0.00    +0.030 A 
ATOM     15  C   UNL     1       1.250  -0.597   0.507  1.00  0.00    +0.011 A 
ATOM     16  C   UNL     1       2.604   0.024  -1.410  1.00  0.00    +0.071 A 
ATOM     17  C   UNL     1       2.095   1.784  -2.823  1.00  0.00    +0.112 A 
ATOM     18  C   UNL     1       2.142  -1.620   0.828  1.00  0.00    +0.001 A 
ATOM     19  C   UNL     1       3.476  -1.002  -1.071  1.00  0.00    +0.029 A 
ATOM     20  N   UNL     1       2.916   0.775  -2.480  1.00  0.00    -0.256 NA
ATOM     21  C   UNL     1       3.258  -1.826   0.033  1.00  0.00    +0.002 A 
ENDBRANCH  11  12
ENDBRANCH   4  10
TORSDOF 3
