MODEL 1
REMARK VINA RESULT:    -8.697      0.000      0.000
REMARK INTER + INTRA:         -11.394
REMARK INTER:                 -10.731
REMARK INTRA:                  -0.663
REMARK UNBOUND:                -0.663
REMARK SMILES O=C(O)C(=Cc1cc(Br)cc(Br)c1O)c1ccccc1
REMARK SMILES IDX 4 1 5 2 2 3 1 4 3 5 15 7 16 8 20 9 17 10 19 11 18 12 6 13
REMARK SMILES IDX 13 14 7 15 11 16 8 17 10 18 12 19 9 20 14 21
REMARK H PARENT 3 6 14 22
ROOT
ATOM      1  C   UNL     1     -26.413   4.262   9.500  1.00  0.00    +0.067 C 
ATOM      2  C   UNL     1     -27.311   3.294   9.220  1.00  0.00    +0.028 C 
ENDROOT
BRANCH   1   3
ATOM      3  C   UNL     1     -25.495   4.168  10.670  1.00  0.00    +0.336 C 
ATOM      4  O   UNL     1     -24.318   3.854  10.671  1.00  0.00    -0.246 OA
BRANCH   3   5
ATOM      5  O   UNL     1     -26.116   4.471  11.826  1.00  0.00    -0.478 OA
ATOM      6  H   UNL     1     -27.054   4.569  11.563  1.00  0.00    +0.297 HD
ENDBRANCH   3   5
ENDBRANCH   1   3
BRANCH   1   7
ATOM      7  C   UNL     1     -26.383   5.434   8.603  1.00  0.00    -0.011 A 
ATOM      8  C   UNL     1     -25.210   5.775   7.912  1.00  0.00    +0.009 A 
ATOM      9  C   UNL     1     -27.532   6.215   8.422  1.00  0.00    +0.009 A 
ATOM     10  C   UNL     1     -25.191   6.878   7.055  1.00  0.00    +0.001 A 
ATOM     11  C   UNL     1     -27.510   7.317   7.565  1.00  0.00    +0.001 A 
ATOM     12  C   UNL     1     -26.341   7.646   6.881  1.00  0.00    +0.000 A 
ENDBRANCH   1   7
BRANCH   2  13
ATOM     13  C   UNL     1     -27.479   2.031   9.947  1.00  0.00    +0.019 A 
ATOM     14  C   UNL     1     -26.672   0.916   9.681  1.00  0.00    +0.137 A 
ATOM     15  C   UNL     1     -28.466   1.943  10.937  1.00  0.00    +0.027 A 
ATOM     16  C   UNL     1     -26.846  -0.268  10.406  1.00  0.00    +0.061 A 
ATOM     17  C   UNL     1     -28.631   0.756  11.652  1.00  0.00    +0.019 A 
ATOM     18  C   UNL     1     -27.826  -0.352  11.394  1.00  0.00    +0.035 A 
ATOM     19 Br   UNL     1     -25.760  -1.784  10.061  1.00  0.00    -0.047 Br
ATOM     20 Br   UNL     1     -29.965   0.650  12.990  1.00  0.00    -0.051 Br
BRANCH  14  21
ATOM     21  O   UNL     1     -25.718   1.012   8.699  1.00  0.00    -0.506 OA
ATOM     22  H   UNL     1     -25.948   0.370   8.005  1.00  0.00    +0.293 HD
ENDBRANCH  14  21
ENDBRANCH   2  13
TORSDOF 5
ENDMDL
MODEL 2
REMARK VINA RESULT:    -8.106      5.419      6.594
REMARK INTER + INTRA:         -10.664
REMARK INTER:                 -10.516
REMARK INTRA:                  -0.148
REMARK UNBOUND:                -0.663
REMARK SMILES O=C(O)C(=Cc1cc(Br)cc(Br)c1O)c1ccccc1
REMARK SMILES IDX 4 1 5 2 2 3 1 4 3 5 15 7 16 8 20 9 17 10 19 11 18 12 6 13
REMARK SMILES IDX 13 14 7 15 11 16 8 17 10 18 12 19 9 20 14 21
REMARK H PARENT 3 6 14 22
ROOT
ATOM      1  C   UNL     1     -31.998   7.026   7.775  1.00  0.00    +0.067 C 
ATOM      2  C   UNL     1     -31.566   6.246   8.787  1.00  0.00    +0.028 C 
ENDROOT
BRANCH   1   3
ATOM      3  C   UNL     1     -33.207   6.679   6.976  1.00  0.00    +0.336 C 
ATOM      4  O   UNL     1     -33.280   5.922   6.024  1.00  0.00    -0.246 OA
BRANCH   3   5
ATOM      5  O   UNL     1     -34.304   7.327   7.410  1.00  0.00    -0.478 OA
ATOM      6  H   UNL     1     -34.331   7.116   8.366  1.00  0.00    +0.297 HD
ENDBRANCH   3   5
ENDBRANCH   1   3
BRANCH   1   7
ATOM      7  C   UNL     1     -31.213   8.241   7.476  1.00  0.00    -0.011 A 
ATOM      8  C   UNL     1     -31.845   9.487   7.356  1.00  0.00    +0.009 A 
ATOM      9  C   UNL     1     -29.823   8.163   7.322  1.00  0.00    +0.009 A 
ATOM     10  C   UNL     1     -31.096  10.635   7.086  1.00  0.00    +0.001 A 
ATOM     11  C   UNL     1     -29.076   9.312   7.052  1.00  0.00    +0.001 A 
ATOM     12  C   UNL     1     -29.713  10.547   6.936  1.00  0.00    +0.000 A 
ENDBRANCH   1   7
BRANCH   2  13
ATOM     13  C   UNL     1     -32.216   5.027   9.281  1.00  0.00    +0.019 A 
ATOM     14  C   UNL     1     -31.519   3.816   9.396  1.00  0.00    +0.137 A 
ATOM     15  C   UNL     1     -33.565   5.079   9.653  1.00  0.00    +0.027 A 
ATOM     16  C   UNL     1     -32.164   2.677   9.888  1.00  0.00    +0.061 A 
ATOM     17  C   UNL     1     -34.198   3.936  10.140  1.00  0.00    +0.019 A 
ATOM     18  C   UNL     1     -33.506   2.732  10.262  1.00  0.00    +0.035 A 
ATOM     19 Br   UNL     1     -31.235   1.032  10.054  1.00  0.00    -0.047 Br
ATOM     20 Br   UNL     1     -36.020   4.020  10.644  1.00  0.00    -0.051 Br
BRANCH  14  21
ATOM     21  O   UNL     1     -30.201   3.775   9.015  1.00  0.00    -0.506 OA
ATOM     22  H   UNL     1     -29.727   4.449   9.534  1.00  0.00    +0.293 HD
ENDBRANCH  14  21
ENDBRANCH   2  13
TORSDOF 5
ENDMDL
MODEL 3
REMARK VINA RESULT:    -8.006      6.957      8.078
REMARK INTER + INTRA:         -10.540
REMARK INTER:                  -9.700
REMARK INTRA:                  -0.840
REMARK UNBOUND:                -0.663
REMARK SMILES O=C(O)C(=Cc1cc(Br)cc(Br)c1O)c1ccccc1
REMARK SMILES IDX 4 1 5 2 2 3 1 4 3 5 15 7 16 8 20 9 17 10 19 11 18 12 6 13
REMARK SMILES IDX 13 14 7 15 11 16 8 17 10 18 12 19 9 20 14 21
REMARK H PARENT 3 6 14 22
ROOT
ATOM      1  C   UNL     1     -29.751   9.847   6.547  1.00  0.00    +0.067 C 
ATOM      2  C   UNL     1     -29.828   8.503   6.453  1.00  0.00    +0.028 C 
ENDROOT
BRANCH   1   3
ATOM      3  C   UNL     1     -30.925  10.677   6.935  1.00  0.00    +0.336 C 
ATOM      4  O   UNL     1     -31.217  11.084   8.046  1.00  0.00    -0.246 OA
BRANCH   3   5
ATOM      5  O   UNL     1     -31.715  10.961   5.882  1.00  0.00    -0.478 OA
ATOM      6  H   UNL     1     -32.288  10.171   5.806  1.00  0.00    +0.297 HD
ENDBRANCH   3   5
ENDBRANCH   1   3
BRANCH   1   7
ATOM      7  C   UNL     1     -28.450  10.471   6.233  1.00  0.00    -0.011 A 
ATOM      8  C   UNL     1     -28.391  11.753   5.668  1.00  0.00    +0.009 A 
ATOM      9  C   UNL     1     -27.256   9.791   6.510  1.00  0.00    +0.009 A 
ATOM     10  C   UNL     1     -27.156  12.344   5.386  1.00  0.00    +0.001 A 
ATOM     11  C   UNL     1     -26.023  10.384   6.226  1.00  0.00    +0.001 A 
ATOM     12  C   UNL     1     -25.975  11.660   5.666  1.00  0.00    +0.000 A 
ENDBRANCH   1   7
BRANCH   2  13
ATOM     13  C   UNL     1     -31.002   7.679   6.763  1.00  0.00    +0.019 A 
ATOM     14  C   UNL     1     -32.025   7.474   5.826  1.00  0.00    +0.137 A 
ATOM     15  C   UNL     1     -31.096   7.076   8.023  1.00  0.00    +0.027 A 
ATOM     16  C   UNL     1     -33.122   6.667   6.147  1.00  0.00    +0.061 A 
ATOM     17  C   UNL     1     -32.196   6.275   8.333  1.00  0.00    +0.019 A 
ATOM     18  C   UNL     1     -33.211   6.065   7.402  1.00  0.00    +0.035 A 
ATOM     19 Br   UNL     1     -34.512   6.376   4.891  1.00  0.00    -0.047 Br
ATOM     20 Br   UNL     1     -32.309   5.463  10.038  1.00  0.00    -0.051 Br
BRANCH  14  21
ATOM     21  O   UNL     1     -31.927   8.081   4.599  1.00  0.00    -0.506 OA
ATOM     22  H   UNL     1     -32.833   8.228   4.273  1.00  0.00    +0.293 HD
ENDBRANCH  14  21
ENDBRANCH   2  13
TORSDOF 5
ENDMDL
MODEL 4
REMARK VINA RESULT:    -7.733      2.335      3.366
REMARK INTER + INTRA:         -10.205
REMARK INTER:                  -9.510
REMARK INTRA:                  -0.695
REMARK UNBOUND:                -0.663
REMARK SMILES O=C(O)C(=Cc1cc(Br)cc(Br)c1O)c1ccccc1
REMARK SMILES IDX 4 1 5 2 2 3 1 4 3 5 15 7 16 8 20 9 17 10 19 11 18 12 6 13
REMARK SMILES IDX 13 14 7 15 11 16 8 17 10 18 12 19 9 20 14 21
REMARK H PARENT 3 6 14 22
ROOT
ATOM      1  C   UNL     1     -27.094   2.269  10.474  1.00  0.00    +0.067 C 
ATOM      2  C   UNL     1     -28.226   2.464  11.182  1.00  0.00    +0.028 C 
ENDROOT
BRANCH   1   3
ATOM      3  C   UNL     1     -26.436   0.935  10.394  1.00  0.00    +0.336 C 
ATOM      4  O   UNL     1     -25.823   0.352  11.271  1.00  0.00    -0.246 OA
BRANCH   3   5
ATOM      5  O   UNL     1     -26.568   0.377   9.175  1.00  0.00    -0.478 OA
ATOM      6  H   UNL     1     -26.579   1.148   8.571  1.00  0.00    +0.297 HD
ENDBRANCH   3   5
ENDBRANCH   1   3
BRANCH   1   7
ATOM      7  C   UNL     1     -26.519   3.442   9.785  1.00  0.00    -0.011 A 
ATOM      8  C   UNL     1     -25.243   3.915  10.125  1.00  0.00    +0.009 A 
ATOM      9  C   UNL     1     -27.240   4.090   8.773  1.00  0.00    +0.009 A 
ATOM     10  C   UNL     1     -24.698   5.017   9.461  1.00  0.00    +0.001 A 
ATOM     11  C   UNL     1     -26.693   5.192   8.111  1.00  0.00    +0.001 A 
ATOM     12  C   UNL     1     -25.423   5.653   8.455  1.00  0.00    +0.000 A 
ENDBRANCH   1   7
BRANCH   2  13
ATOM     13  C   UNL     1     -28.987   1.435  11.900  1.00  0.00    +0.019 A 
ATOM     14  C   UNL     1     -29.878   0.581  11.235  1.00  0.00    +0.137 A 
ATOM     15  C   UNL     1     -28.810   1.300  13.283  1.00  0.00    +0.027 A 
ATOM     16  C   UNL     1     -30.574  -0.402  11.947  1.00  0.00    +0.061 A 
ATOM     17  C   UNL     1     -29.511   0.317  13.982  1.00  0.00    +0.019 A 
ATOM     18  C   UNL     1     -30.393  -0.537  13.323  1.00  0.00    +0.035 A 
ATOM     19 Br   UNL     1     -31.780  -1.568  11.063  1.00  0.00    -0.047 Br
ATOM     20 Br   UNL     1     -29.260   0.141  15.849  1.00  0.00    -0.051 Br
BRANCH  14  21
ATOM     21  O   UNL     1     -30.052   0.733   9.882  1.00  0.00    -0.506 OA
ATOM     22  H   UNL     1     -29.420   1.410   9.582  1.00  0.00    +0.293 HD
ENDBRANCH  14  21
ENDBRANCH   2  13
TORSDOF 5
ENDMDL
MODEL 5
REMARK VINA RESULT:    -7.639      6.644      8.086
REMARK INTER + INTRA:         -10.088
REMARK INTER:                  -9.411
REMARK INTRA:                  -0.678
REMARK UNBOUND:                -0.663
REMARK SMILES O=C(O)C(=Cc1cc(Br)cc(Br)c1O)c1ccccc1
REMARK SMILES IDX 4 1 5 2 2 3 1 4 3 5 15 7 16 8 20 9 17 10 19 11 18 12 6 13
REMARK SMILES IDX 13 14 7 15 11 16 8 17 10 18 12 19 9 20 14 21
REMARK H PARENT 3 6 14 22
ROOT
ATOM      1  C   UNL     1     -32.796   6.802   7.529  1.00  0.00    +0.067 C 
ATOM      2  C   UNL     1     -32.886   6.221   8.744  1.00  0.00    +0.028 C 
ENDROOT
BRANCH   1   3
ATOM      3  C   UNL     1     -33.573   6.305   6.359  1.00  0.00    +0.336 C 
ATOM      4  O   UNL     1     -33.239   5.460   5.547  1.00  0.00    -0.246 OA
BRANCH   3   5
ATOM      5  O   UNL     1     -34.768   6.916   6.248  1.00  0.00    -0.478 OA
ATOM      6  H   UNL     1     -34.607   7.612   5.579  1.00  0.00    +0.297 HD
ENDBRANCH   3   5
ENDBRANCH   1   3
BRANCH   1   7
ATOM      7  C   UNL     1     -31.878   7.952   7.398  1.00  0.00    -0.011 A 
ATOM      8  C   UNL     1     -32.328   9.257   7.645  1.00  0.00    +0.009 A 
ATOM      9  C   UNL     1     -30.540   7.748   7.034  1.00  0.00    +0.009 A 
ATOM     10  C   UNL     1     -31.452  10.339   7.532  1.00  0.00    +0.001 A 
ATOM     11  C   UNL     1     -29.666   8.832   6.922  1.00  0.00    +0.001 A 
ATOM     12  C   UNL     1     -30.122  10.126   7.172  1.00  0.00    +0.000 A 
ENDBRANCH   1   7
BRANCH   2  13
ATOM     13  C   UNL     1     -33.766   5.104   9.106  1.00  0.00    +0.019 A 
ATOM     14  C   UNL     1     -35.154   5.266   9.216  1.00  0.00    +0.137 A 
ATOM     15  C   UNL     1     -33.202   3.844   9.341  1.00  0.00    +0.027 A 
ATOM     16  C   UNL     1     -35.966   4.175   9.545  1.00  0.00    +0.061 A 
ATOM     17  C   UNL     1     -34.021   2.764   9.670  1.00  0.00    +0.019 A 
ATOM     18  C   UNL     1     -35.402   2.920   9.774  1.00  0.00    +0.035 A 
ATOM     19 Br   UNL     1     -37.845   4.375   9.693  1.00  0.00    -0.047 Br
ATOM     20 Br   UNL     1     -33.247   1.065   9.980  1.00  0.00    -0.051 Br
BRANCH  14  21
ATOM     21  O   UNL     1     -35.692   6.509   8.996  1.00  0.00    -0.506 OA
ATOM     22  H   UNL     1     -36.661   6.413   9.010  1.00  0.00    +0.293 HD
ENDBRANCH  14  21
ENDBRANCH   2  13
TORSDOF 5
ENDMDL
MODEL 6
REMARK VINA RESULT:    -7.331      3.672      4.995
REMARK INTER + INTRA:          -9.708
REMARK INTER:                  -8.866
REMARK INTRA:                  -0.842
REMARK UNBOUND:                -0.663
REMARK SMILES O=C(O)C(=Cc1cc(Br)cc(Br)c1O)c1ccccc1
REMARK SMILES IDX 4 1 5 2 2 3 1 4 3 5 15 7 16 8 20 9 17 10 19 11 18 12 6 13
REMARK SMILES IDX 13 14 7 15 11 16 8 17 10 18 12 19 9 20 14 21
REMARK H PARENT 3 6 14 22
ROOT
ATOM      1  C   UNL     1     -25.728   1.580  11.446  1.00  0.00    +0.067 C 
ATOM      2  C   UNL     1     -26.582   0.582  11.757  1.00  0.00    +0.028 C 
ENDROOT
BRANCH   1   3
ATOM      3  C   UNL     1     -26.149   3.009  11.463  1.00  0.00    +0.336 C 
ATOM      4  O   UNL     1     -26.032   3.810  12.373  1.00  0.00    -0.246 OA
BRANCH   3   5
ATOM      5  O   UNL     1     -26.727   3.381  10.305  1.00  0.00    -0.478 OA
ATOM      6  H   UNL     1     -26.160   4.114   9.991  1.00  0.00    +0.297 HD
ENDBRANCH   3   5
ENDBRANCH   1   3
BRANCH   1   7
ATOM      7  C   UNL     1     -24.352   1.197  11.070  1.00  0.00    -0.011 A 
ATOM      8  C   UNL     1     -23.324   2.152  11.059  1.00  0.00    +0.009 A 
ATOM      9  C   UNL     1     -24.055  -0.130  10.733  1.00  0.00    +0.009 A 
ATOM     10  C   UNL     1     -22.021   1.781  10.715  1.00  0.00    +0.001 A 
ATOM     11  C   UNL     1     -22.752  -0.497  10.390  1.00  0.00    +0.001 A 
ATOM     12  C   UNL     1     -21.736   0.459  10.382  1.00  0.00    +0.000 A 
ENDBRANCH   1   7
BRANCH   2  13
ATOM     13  C   UNL     1     -27.972   0.738  12.200  1.00  0.00    +0.019 A 
ATOM     14  C   UNL     1     -29.026   0.869  11.285  1.00  0.00    +0.137 A 
ATOM     15  C   UNL     1     -28.251   0.748  13.573  1.00  0.00    +0.027 A 
ATOM     16  C   UNL     1     -30.342   0.996  11.741  1.00  0.00    +0.061 A 
ATOM     17  C   UNL     1     -29.567   0.878  14.015  1.00  0.00    +0.019 A 
ATOM     18  C   UNL     1     -30.618   1.002  13.108  1.00  0.00    +0.035 A 
ATOM     19 Br   UNL     1     -31.780   1.169  10.517  1.00  0.00    -0.047 Br
ATOM     20 Br   UNL     1     -29.931   0.886  15.872  1.00  0.00    -0.051 Br
BRANCH  14  21
ATOM     21  O   UNL     1     -28.737   0.870   9.943  1.00  0.00    -0.506 OA
ATOM     22  H   UNL     1     -29.474   0.427   9.486  1.00  0.00    +0.293 HD
ENDBRANCH  14  21
ENDBRANCH   2  13
TORSDOF 5
ENDMDL
MODEL 7
REMARK VINA RESULT:    -7.310      4.097      5.360
REMARK INTER + INTRA:          -9.682
REMARK INTER:                  -9.035
REMARK INTRA:                  -0.646
REMARK UNBOUND:                -0.663
REMARK SMILES O=C(O)C(=Cc1cc(Br)cc(Br)c1O)c1ccccc1
REMARK SMILES IDX 4 1 5 2 2 3 1 4 3 5 15 7 16 8 20 9 17 10 19 11 18 12 6 13
REMARK SMILES IDX 13 14 7 15 11 16 8 17 10 18 12 19 9 20 14 21
REMARK H PARENT 3 6 14 22
ROOT
ATOM      1  C   UNL     1     -26.554   0.797  11.680  1.00  0.00    +0.067 C 
ATOM      2  C   UNL     1     -26.891  -0.456  12.050  1.00  0.00    +0.028 C 
ENDROOT
BRANCH   1   3
ATOM      3  C   UNL     1     -27.533   1.919  11.723  1.00  0.00    +0.336 C 
ATOM      4  O   UNL     1     -28.191   2.371  10.802  1.00  0.00    -0.246 OA
BRANCH   3   5
ATOM      5  O   UNL     1     -27.639   2.452  12.955  1.00  0.00    -0.478 OA
ATOM      6  H   UNL     1     -26.958   1.974  13.471  1.00  0.00    +0.297 HD
ENDBRANCH   3   5
ENDBRANCH   1   3
BRANCH   1   7
ATOM      7  C   UNL     1     -25.170   1.014  11.213  1.00  0.00    -0.011 A 
ATOM      8  C   UNL     1     -24.591   2.290  11.264  1.00  0.00    +0.009 A 
ATOM      9  C   UNL     1     -24.415  -0.060  10.723  1.00  0.00    +0.009 A 
ATOM     10  C   UNL     1     -23.276   2.486  10.834  1.00  0.00    +0.001 A 
ATOM     11  C   UNL     1     -23.101   0.139  10.292  1.00  0.00    +0.001 A 
ATOM     12  C   UNL     1     -22.533   1.412  10.349  1.00  0.00    +0.000 A 
ENDBRANCH   1   7
BRANCH   2  13
ATOM     13  C   UNL     1     -28.189  -0.882  12.586  1.00  0.00    +0.019 A 
ATOM     14  C   UNL     1     -28.380  -1.112  13.956  1.00  0.00    +0.137 A 
ATOM     15  C   UNL     1     -29.264  -1.056  11.706  1.00  0.00    +0.027 A 
ATOM     16  C   UNL     1     -29.635  -1.499  14.437  1.00  0.00    +0.061 A 
ATOM     17  C   UNL     1     -30.511  -1.444  12.197  1.00  0.00    +0.019 A 
ATOM     18  C   UNL     1     -30.705  -1.667  13.558  1.00  0.00    +0.035 A 
ATOM     19 Br   UNL     1     -29.912  -1.809  16.287  1.00  0.00    -0.047 Br
ATOM     20 Br   UNL     1     -31.957  -1.671  10.997  1.00  0.00    -0.051 Br
BRANCH  14  21
ATOM     21  O   UNL     1     -27.314  -0.951  14.807  1.00  0.00    -0.506 OA
ATOM     22  H   UNL     1     -27.605  -0.367  15.530  1.00  0.00    +0.293 HD
ENDBRANCH  14  21
ENDBRANCH   2  13
TORSDOF 5
ENDMDL
MODEL 8
REMARK VINA RESULT:    -7.254      6.376      8.359
REMARK INTER + INTRA:          -9.613
REMARK INTER:                  -8.824
REMARK INTRA:                  -0.789
REMARK UNBOUND:                -0.663
REMARK SMILES O=C(O)C(=Cc1cc(Br)cc(Br)c1O)c1ccccc1
REMARK SMILES IDX 4 1 5 2 2 3 1 4 3 5 15 7 16 8 20 9 17 10 19 11 18 12 6 13
REMARK SMILES IDX 13 14 7 15 11 16 8 17 10 18 12 19 9 20 14 21
REMARK H PARENT 3 6 14 22
ROOT
ATOM      1  C   UNL     1     -31.919   0.919  11.711  1.00  0.00    +0.067 C 
ATOM      2  C   UNL     1     -32.820   1.921  11.777  1.00  0.00    +0.028 C 
ENDROOT
BRANCH   1   3
ATOM      3  C   UNL     1     -32.054  -0.197  10.733  1.00  0.00    +0.336 C 
ATOM      4  O   UNL     1     -32.517  -1.307  10.927  1.00  0.00    -0.246 OA
BRANCH   3   5
ATOM      5  O   UNL     1     -31.576   0.133   9.518  1.00  0.00    -0.478 OA
ATOM      6  H   UNL     1     -31.744   1.096   9.461  1.00  0.00    +0.297 HD
ENDBRANCH   3   5
ENDBRANCH   1   3
BRANCH   1   7
ATOM      7  C   UNL     1     -30.791   0.962  12.663  1.00  0.00    -0.011 A 
ATOM      8  C   UNL     1     -30.986   0.651  14.016  1.00  0.00    +0.009 A 
ATOM      9  C   UNL     1     -29.506   1.305  12.219  1.00  0.00    +0.009 A 
ATOM     10  C   UNL     1     -29.912   0.680  14.909  1.00  0.00    +0.001 A 
ATOM     11  C   UNL     1     -28.434   1.334  13.115  1.00  0.00    +0.001 A 
ATOM     12  C   UNL     1     -28.638   1.021  14.458  1.00  0.00    +0.000 A 
ENDBRANCH   1   7
BRANCH   2  13
ATOM     13  C   UNL     1     -33.984   2.099  10.901  1.00  0.00    +0.019 A 
ATOM     14  C   UNL     1     -33.871   2.706   9.642  1.00  0.00    +0.137 A 
ATOM     15  C   UNL     1     -35.235   1.643  11.333  1.00  0.00    +0.027 A 
ATOM     16  C   UNL     1     -34.998   2.843   8.824  1.00  0.00    +0.061 A 
ATOM     17  C   UNL     1     -36.352   1.787  10.509  1.00  0.00    +0.019 A 
ATOM     18  C   UNL     1     -36.242   2.384   9.255  1.00  0.00    +0.035 A 
ATOM     19 Br   UNL     1     -34.863   3.658   7.117  1.00  0.00    -0.047 Br
ATOM     20 Br   UNL     1     -38.037   1.163  11.102  1.00  0.00    -0.051 Br
BRANCH  14  21
ATOM     21  O   UNL     1     -32.641   3.161   9.237  1.00  0.00    -0.506 OA
ATOM     22  H   UNL     1     -32.087   2.380   9.059  1.00  0.00    +0.293 HD
ENDBRANCH  14  21
ENDBRANCH   2  13
TORSDOF 5
ENDMDL
MODEL 9
REMARK VINA RESULT:    -6.906      4.432      5.502
REMARK INTER + INTRA:          -9.183
REMARK INTER:                  -8.448
REMARK INTRA:                  -0.735
REMARK UNBOUND:                -0.663
REMARK SMILES O=C(O)C(=Cc1cc(Br)cc(Br)c1O)c1ccccc1
REMARK SMILES IDX 4 1 5 2 2 3 1 4 3 5 15 7 16 8 20 9 17 10 19 11 18 12 6 13
REMARK SMILES IDX 13 14 7 15 11 16 8 17 10 18 12 19 9 20 14 21
REMARK H PARENT 3 6 14 22
ROOT
ATOM      1  C   UNL     1     -27.128   0.660  11.484  1.00  0.00    +0.067 C 
ATOM      2  C   UNL     1     -27.968   0.341  10.478  1.00  0.00    +0.028 C 
ENDROOT
BRANCH   1   3
ATOM      3  C   UNL     1     -27.626   1.032  12.837  1.00  0.00    +0.336 C 
ATOM      4  O   UNL     1     -27.717   0.320  13.822  1.00  0.00    -0.246 OA
BRANCH   3   5
ATOM      5  O   UNL     1     -28.014   2.321  12.898  1.00  0.00    -0.478 OA
ATOM      6  H   UNL     1     -27.329   2.790  12.379  1.00  0.00    +0.297 HD
ENDBRANCH   3   5
ENDBRANCH   1   3
BRANCH   1   7
ATOM      7  C   UNL     1     -25.681   0.639  11.187  1.00  0.00    -0.011 A 
ATOM      8  C   UNL     1     -24.895   1.783  11.385  1.00  0.00    +0.009 A 
ATOM      9  C   UNL     1     -25.075  -0.533  10.714  1.00  0.00    +0.009 A 
ATOM     10  C   UNL     1     -23.524   1.753  11.115  1.00  0.00    +0.001 A 
ATOM     11  C   UNL     1     -23.705  -0.560  10.444  1.00  0.00    +0.001 A 
ATOM     12  C   UNL     1     -22.931   0.583  10.646  1.00  0.00    +0.000 A 
ENDBRANCH   1   7
BRANCH   2  13
ATOM     13  C   UNL     1     -29.431   0.254  10.565  1.00  0.00    +0.019 A 
ATOM     14  C   UNL     1     -30.254   1.336  10.225  1.00  0.00    +0.137 A 
ATOM     15  C   UNL     1     -30.015  -0.945  10.992  1.00  0.00    +0.027 A 
ATOM     16  C   UNL     1     -31.645   1.212  10.301  1.00  0.00    +0.061 A 
ATOM     17  C   UNL     1     -31.404  -1.056  11.066  1.00  0.00    +0.019 A 
ATOM     18  C   UNL     1     -32.225   0.016  10.723  1.00  0.00    +0.035 A 
ATOM     19 Br   UNL     1     -32.774   2.664   9.840  1.00  0.00    -0.047 Br
ATOM     20 Br   UNL     1     -32.182  -2.682  11.641  1.00  0.00    -0.051 Br
BRANCH  14  21
ATOM     21  O   UNL     1     -29.668   2.509   9.820  1.00  0.00    -0.506 OA
ATOM     22  H   UNL     1     -28.711   2.346   9.744  1.00  0.00    +0.293 HD
ENDBRANCH  14  21
ENDBRANCH   2  13
TORSDOF 5
ENDMDL
