MODEL 1
REMARK VINA RESULT:    -9.828      0.000      0.000
REMARK INTER + INTRA:         -13.979
REMARK INTER:                 -13.275
REMARK INTRA:                  -0.704
REMARK UNBOUND:                -0.704
REMARK SMILES CCc1nc(Nc2c(CC)cccc2CC)c2cnn(-c3ccccc3)c2n1
REMARK SMILES IDX 6 1 7 3 8 4 11 5 14 6 12 7 13 8 9 9 10 10 15 11 16 12 5 13
REMARK SMILES IDX 17 14 4 15 18 16 27 17 3 18 19 19 20 20 28 21 2 22 1 23
REMARK SMILES IDX 21 24 22 25 26 26 23 27 25 28 24 29
REMARK H PARENT 6 2
ROOT
ATOM      1  N   UNL     1     -32.640   6.939   8.563  1.00  0.00    -0.339 N 
ATOM      2  H   UNL     1     -32.819   7.138   9.539  1.00  0.00    +0.168 HD
ENDROOT
BRANCH   1   3
ATOM      3  C   UNL     1     -33.257   5.732   8.148  1.00  0.00    +0.046 A 
ATOM      4  C   UNL     1     -33.610   5.552   6.786  1.00  0.00    -0.024 A 
ATOM      5  C   UNL     1     -34.225   4.355   6.381  1.00  0.00    +0.006 A 
ATOM      6  C   UNL     1     -33.567   4.720   9.087  1.00  0.00    -0.024 A 
ATOM      7  C   UNL     1     -34.508   3.354   7.301  1.00  0.00    +0.001 A 
ATOM      8  C   UNL     1     -34.182   3.535   8.641  1.00  0.00    +0.006 A 
BRANCH   4   9
ATOM      9  C   UNL     1     -33.339   6.599   5.727  1.00  0.00    +0.034 C 
ATOM     10  C   UNL     1     -34.430   6.629   4.665  1.00  0.00    +0.009 C 
ENDBRANCH   4   9
BRANCH   6  11
ATOM     11  C   UNL     1     -33.207   4.826  10.555  1.00  0.00    +0.034 C 
ATOM     12  C   UNL     1     -34.416   5.060  11.452  1.00  0.00    +0.009 C 
ENDBRANCH   6  11
ENDBRANCH   1   3
BRANCH   1  13
ATOM     13  C   UNL     1     -31.337   7.340   8.201  1.00  0.00    +0.145 A 
ATOM     14  C   UNL     1     -31.095   8.560   7.556  1.00  0.00    +0.082 A 
ATOM     15  N   UNL     1     -30.265   6.557   8.470  1.00  0.00    -0.215 NA
ATOM     16  C   UNL     1     -31.853   9.640   7.082  1.00  0.00    +0.150 A 
ATOM     17  C   UNL     1     -29.784   8.888   7.250  1.00  0.00    +0.168 A 
ATOM     18  C   UNL     1     -29.026   6.967   8.134  1.00  0.00    +0.133 A 
ATOM     19  N   UNL     1     -31.111  10.598   6.530  1.00  0.00    -0.174 NA
ATOM     20  N   UNL     1     -29.823  10.134   6.621  1.00  0.00    -0.215 N 
ATOM     21  N   UNL     1     -28.710   8.123   7.525  1.00  0.00    -0.213 NA
BRANCH  18  22
ATOM     22  C   UNL     1     -27.892   6.030   8.450  1.00  0.00    +0.074 C 
ATOM     23  C   UNL     1     -26.625   6.424   7.706  1.00  0.00    +0.012 C 
ENDBRANCH  18  22
BRANCH  20  24
ATOM     24  C   UNL     1     -28.753  10.923   6.097  1.00  0.00    +0.067 A 
ATOM     25  C   UNL     1     -28.995  12.264   5.752  1.00  0.00    +0.028 A 
ATOM     26  C   UNL     1     -27.466  10.401   5.913  1.00  0.00    +0.028 A 
ATOM     27  C   UNL     1     -27.972  13.064   5.235  1.00  0.00    +0.002 A 
ATOM     28  C   UNL     1     -26.445  11.207   5.394  1.00  0.00    +0.002 A 
ATOM     29  C   UNL     1     -26.698  12.534   5.056  1.00  0.00    +0.000 A 
ENDBRANCH  20  24
ENDBRANCH   1  13
TORSDOF 6
ENDMDL
MODEL 2
REMARK VINA RESULT:    -9.816      4.333      8.701
REMARK INTER + INTRA:         -13.964
REMARK INTER:                 -13.127
REMARK INTRA:                  -0.836
REMARK UNBOUND:                -0.704
REMARK SMILES CCc1nc(Nc2c(CC)cccc2CC)c2cnn(-c3ccccc3)c2n1
REMARK SMILES IDX 6 1 7 3 8 4 11 5 14 6 12 7 13 8 9 9 10 10 15 11 16 12 5 13
REMARK SMILES IDX 17 14 4 15 18 16 27 17 3 18 19 19 20 20 28 21 2 22 1 23
REMARK SMILES IDX 21 24 22 25 26 26 23 27 25 28 24 29
REMARK H PARENT 6 2
ROOT
ATOM      1  N   UNL     1     -30.218   1.988   9.878  1.00  0.00    -0.339 N 
ATOM      2  H   UNL     1     -30.620   1.062   9.827  1.00  0.00    +0.168 HD
ENDROOT
BRANCH   1   3
ATOM      3  C   UNL     1     -29.135   2.045  10.792  1.00  0.00    +0.046 A 
ATOM      4  C   UNL     1     -27.948   2.736  10.439  1.00  0.00    -0.024 A 
ATOM      5  C   UNL     1     -26.876   2.783  11.347  1.00  0.00    +0.006 A 
ATOM      6  C   UNL     1     -29.207   1.378  12.038  1.00  0.00    -0.024 A 
ATOM      7  C   UNL     1     -26.959   2.147  12.578  1.00  0.00    +0.001 A 
ATOM      8  C   UNL     1     -28.113   1.451  12.921  1.00  0.00    +0.006 A 
BRANCH   4   9
ATOM      9  C   UNL     1     -27.781   3.447   9.113  1.00  0.00    +0.034 C 
ATOM     10  C   UNL     1     -26.519   4.298   9.080  1.00  0.00    +0.009 C 
ENDBRANCH   4   9
BRANCH   6  11
ATOM     11  C   UNL     1     -30.445   0.634  12.500  1.00  0.00    +0.034 C 
ATOM     12  C   UNL     1     -30.630   0.662  14.012  1.00  0.00    +0.009 C 
ENDBRANCH   6  11
ENDBRANCH   1   3
BRANCH   1  13
ATOM     13  C   UNL     1     -31.217   2.976   9.759  1.00  0.00    +0.145 A 
ATOM     14  C   UNL     1     -32.519   2.767  10.236  1.00  0.00    +0.082 A 
ATOM     15  N   UNL     1     -30.955   4.171   9.179  1.00  0.00    -0.215 NA
ATOM     16  C   UNL     1     -33.230   1.734  10.863  1.00  0.00    +0.150 A 
ATOM     17  C   UNL     1     -33.438   3.794  10.096  1.00  0.00    +0.168 A 
ATOM     18  C   UNL     1     -31.918   5.109   9.092  1.00  0.00    +0.133 A 
ATOM     19  N   UNL     1     -34.495   2.055  11.127  1.00  0.00    -0.174 NA
ATOM     20  N   UNL     1     -34.636   3.331  10.644  1.00  0.00    -0.215 N 
ATOM     21  N   UNL     1     -33.183   4.991   9.533  1.00  0.00    -0.213 NA
BRANCH  18  22
ATOM     22  C   UNL     1     -31.549   6.402   8.417  1.00  0.00    +0.074 C 
ATOM     23  C   UNL     1     -32.420   6.657   7.197  1.00  0.00    +0.012 C 
ENDBRANCH  18  22
BRANCH  20  24
ATOM     24  C   UNL     1     -35.903   3.986  10.749  1.00  0.00    +0.067 A 
ATOM     25  C   UNL     1     -37.073   3.266  10.455  1.00  0.00    +0.028 A 
ATOM     26  C   UNL     1     -36.015   5.328  11.135  1.00  0.00    +0.028 A 
ATOM     27  C   UNL     1     -38.327   3.876  10.545  1.00  0.00    +0.002 A 
ATOM     28  C   UNL     1     -37.274   5.934  11.224  1.00  0.00    +0.002 A 
ATOM     29  C   UNL     1     -38.427   5.210  10.929  1.00  0.00    +0.000 A 
ENDBRANCH  20  24
ENDBRANCH   1  13
TORSDOF 6
ENDMDL
MODEL 3
REMARK VINA RESULT:    -9.742      4.102      8.671
REMARK INTER + INTRA:         -13.863
REMARK INTER:                 -12.890
REMARK INTRA:                  -0.974
REMARK UNBOUND:                -0.704
REMARK SMILES CCc1nc(Nc2c(CC)cccc2CC)c2cnn(-c3ccccc3)c2n1
REMARK SMILES IDX 6 1 7 3 8 4 11 5 14 6 12 7 13 8 9 9 10 10 15 11 16 12 5 13
REMARK SMILES IDX 17 14 4 15 18 16 27 17 3 18 19 19 20 20 28 21 2 22 1 23
REMARK SMILES IDX 21 24 22 25 26 26 23 27 25 28 24 29
REMARK H PARENT 6 2
ROOT
ATOM      1  N   UNL     1     -30.214   2.081   9.764  1.00  0.00    -0.339 N 
ATOM      2  H   UNL     1     -30.669   1.177   9.741  1.00  0.00    +0.168 HD
ENDROOT
BRANCH   1   3
ATOM      3  C   UNL     1     -29.152   2.113  10.702  1.00  0.00    +0.046 A 
ATOM      4  C   UNL     1     -29.309   1.496  11.969  1.00  0.00    -0.024 A 
ATOM      5  C   UNL     1     -28.255   1.536  12.897  1.00  0.00    +0.006 A 
ATOM      6  C   UNL     1     -27.948   2.797  10.407  1.00  0.00    -0.024 A 
ATOM      7  C   UNL     1     -27.066   2.188  12.595  1.00  0.00    +0.001 A 
ATOM      8  C   UNL     1     -26.915   2.813  11.362  1.00  0.00    +0.006 A 
BRANCH   4   9
ATOM      9  C   UNL     1     -30.576   0.772  12.373  1.00  0.00    +0.034 C 
ATOM     10  C   UNL     1     -30.708   0.658  13.885  1.00  0.00    +0.009 C 
ENDBRANCH   4   9
BRANCH   6  11
ATOM     11  C   UNL     1     -27.693   3.466   9.070  1.00  0.00    +0.034 C 
ATOM     12  C   UNL     1     -26.413   4.293   9.051  1.00  0.00    +0.009 C 
ENDBRANCH   6  11
ENDBRANCH   1   3
BRANCH   1  13
ATOM     13  C   UNL     1     -31.152   3.118   9.579  1.00  0.00    +0.145 A 
ATOM     14  C   UNL     1     -32.503   2.959   9.919  1.00  0.00    +0.082 A 
ATOM     15  N   UNL     1     -30.779   4.315   9.066  1.00  0.00    -0.215 NA
ATOM     16  C   UNL     1     -33.317   1.945  10.441  1.00  0.00    +0.150 A 
ATOM     17  C   UNL     1     -33.356   4.032   9.723  1.00  0.00    +0.168 A 
ATOM     18  C   UNL     1     -31.686   5.299   8.915  1.00  0.00    +0.133 A 
ATOM     19  N   UNL     1     -34.587   2.319  10.591  1.00  0.00    -0.174 NA
ATOM     20  N   UNL     1     -34.622   3.612  10.136  1.00  0.00    -0.215 N 
ATOM     21  N   UNL     1     -32.993   5.230   9.225  1.00  0.00    -0.213 NA
BRANCH  18  22
ATOM     22  C   UNL     1     -31.194   6.591   8.320  1.00  0.00    +0.074 C 
ATOM     23  C   UNL     1     -32.141   7.101   7.245  1.00  0.00    +0.012 C 
ENDBRANCH  18  22
BRANCH  20  24
ATOM     24  C   UNL     1     -35.862   4.325  10.138  1.00  0.00    +0.067 A 
ATOM     25  C   UNL     1     -36.066   5.341  11.088  1.00  0.00    +0.028 A 
ATOM     26  C   UNL     1     -36.883   4.042   9.222  1.00  0.00    +0.028 A 
ATOM     27  C   UNL     1     -37.266   6.056  11.120  1.00  0.00    +0.002 A 
ATOM     28  C   UNL     1     -38.083   4.762   9.259  1.00  0.00    +0.002 A 
ATOM     29  C   UNL     1     -38.274   5.765  10.205  1.00  0.00    +0.000 A 
ENDBRANCH  20  24
ENDBRANCH   1  13
TORSDOF 6
ENDMDL
MODEL 4
REMARK VINA RESULT:    -9.610      5.470      8.401
REMARK INTER + INTRA:         -13.685
REMARK INTER:                 -12.881
REMARK INTRA:                  -0.804
REMARK UNBOUND:                -0.704
REMARK SMILES CCc1nc(Nc2c(CC)cccc2CC)c2cnn(-c3ccccc3)c2n1
REMARK SMILES IDX 6 1 7 3 8 4 11 5 14 6 12 7 13 8 9 9 10 10 15 11 16 12 5 13
REMARK SMILES IDX 17 14 4 15 18 16 27 17 3 18 19 19 20 20 28 21 2 22 1 23
REMARK SMILES IDX 21 24 22 25 26 26 23 27 25 28 24 29
REMARK H PARENT 6 2
ROOT
ATOM      1  N   UNL     1     -26.210   1.356  11.458  1.00  0.00    -0.339 N 
ATOM      2  H   UNL     1     -25.612   1.839  12.116  1.00  0.00    +0.168 HD
ENDROOT
BRANCH   1   3
ATOM      3  C   UNL     1     -25.578   0.210  10.912  1.00  0.00    +0.046 A 
ATOM      4  C   UNL     1     -26.358  -0.908  10.522  1.00  0.00    -0.024 A 
ATOM      5  C   UNL     1     -25.726  -2.043   9.986  1.00  0.00    +0.006 A 
ATOM      6  C   UNL     1     -24.169   0.150  10.795  1.00  0.00    -0.024 A 
ATOM      7  C   UNL     1     -24.344  -2.090   9.851  1.00  0.00    +0.001 A 
ATOM      8  C   UNL     1     -23.573  -1.004  10.252  1.00  0.00    +0.006 A 
BRANCH   4   9
ATOM      9  C   UNL     1     -27.867  -0.933  10.644  1.00  0.00    +0.034 C 
ATOM     10  C   UNL     1     -28.323  -1.649  11.908  1.00  0.00    +0.009 C 
ENDBRANCH   4   9
BRANCH   6  11
ATOM     11  C   UNL     1     -23.265   1.307  11.171  1.00  0.00    +0.034 C 
ATOM     12  C   UNL     1     -22.016   1.397  10.303  1.00  0.00    +0.009 C 
ENDBRANCH   6  11
ENDBRANCH   1   3
BRANCH   1  13
ATOM     13  C   UNL     1     -26.984   2.273  10.717  1.00  0.00    +0.145 A 
ATOM     14  C   UNL     1     -26.405   3.384  10.087  1.00  0.00    +0.082 A 
ATOM     15  N   UNL     1     -28.322   2.113  10.583  1.00  0.00    -0.215 NA
ATOM     16  C   UNL     1     -25.126   3.945   9.965  1.00  0.00    +0.150 A 
ATOM     17  C   UNL     1     -27.232   4.227   9.363  1.00  0.00    +0.168 A 
ATOM     18  C   UNL     1     -29.040   2.989   9.855  1.00  0.00    +0.133 A 
ATOM     19  N   UNL     1     -25.108   5.047   9.217  1.00  0.00    -0.174 NA
ATOM     20  N   UNL     1     -26.415   5.236   8.847  1.00  0.00    -0.215 N 
ATOM     21  N   UNL     1     -28.561   4.069   9.213  1.00  0.00    -0.213 NA
BRANCH  18  22
ATOM     22  C   UNL     1     -30.523   2.749   9.773  1.00  0.00    +0.074 C 
ATOM     23  C   UNL     1     -30.875   1.320  10.157  1.00  0.00    +0.012 C 
ENDBRANCH  18  22
BRANCH  20  24
ATOM     24  C   UNL     1     -26.761   6.363   8.038  1.00  0.00    +0.067 A 
ATOM     25  C   UNL     1     -25.869   6.788   7.038  1.00  0.00    +0.028 A 
ATOM     26  C   UNL     1     -27.963   7.061   8.211  1.00  0.00    +0.028 A 
ATOM     27  C   UNL     1     -26.174   7.887   6.231  1.00  0.00    +0.002 A 
ATOM     28  C   UNL     1     -28.263   8.161   7.399  1.00  0.00    +0.002 A 
ATOM     29  C   UNL     1     -27.371   8.573   6.412  1.00  0.00    +0.000 A 
ENDBRANCH  20  24
ENDBRANCH   1  13
TORSDOF 6
ENDMDL
MODEL 5
REMARK VINA RESULT:    -9.599      5.481      8.356
REMARK INTER + INTRA:         -13.670
REMARK INTER:                 -12.878
REMARK INTRA:                  -0.793
REMARK UNBOUND:                -0.704
REMARK SMILES CCc1nc(Nc2c(CC)cccc2CC)c2cnn(-c3ccccc3)c2n1
REMARK SMILES IDX 6 1 7 3 8 4 11 5 14 6 12 7 13 8 9 9 10 10 15 11 16 12 5 13
REMARK SMILES IDX 17 14 4 15 18 16 27 17 3 18 19 19 20 20 28 21 2 22 1 23
REMARK SMILES IDX 21 24 22 25 26 26 23 27 25 28 24 29
REMARK H PARENT 6 2
ROOT
ATOM      1  N   UNL     1     -26.130   1.442  11.502  1.00  0.00    -0.339 N 
ATOM      2  H   UNL     1     -25.523   1.944  12.136  1.00  0.00    +0.168 HD
ENDROOT
BRANCH   1   3
ATOM      3  C   UNL     1     -25.506   0.280  10.981  1.00  0.00    +0.046 A 
ATOM      4  C   UNL     1     -24.107   0.277  10.743  1.00  0.00    -0.024 A 
ATOM      5  C   UNL     1     -23.495  -0.875  10.222  1.00  0.00    +0.006 A 
ATOM      6  C   UNL     1     -26.270  -0.864  10.651  1.00  0.00    -0.024 A 
ATOM      7  C   UNL     1     -24.244  -2.005   9.921  1.00  0.00    +0.001 A 
ATOM      8  C   UNL     1     -25.619  -1.999  10.133  1.00  0.00    +0.006 A 
BRANCH   4   9
ATOM      9  C   UNL     1     -23.226   1.471  11.040  1.00  0.00    +0.034 C 
ATOM     10  C   UNL     1     -21.822   1.294  10.480  1.00  0.00    +0.009 C 
ENDBRANCH   4   9
BRANCH   6  11
ATOM     11  C   UNL     1     -27.764  -0.949  10.892  1.00  0.00    +0.034 C 
ATOM     12  C   UNL     1     -28.124  -1.738  12.145  1.00  0.00    +0.009 C 
ENDBRANCH   6  11
ENDBRANCH   1   3
BRANCH   1  13
ATOM     13  C   UNL     1     -26.915   2.337  10.746  1.00  0.00    +0.145 A 
ATOM     14  C   UNL     1     -26.354   3.454  10.111  1.00  0.00    +0.082 A 
ATOM     15  N   UNL     1     -28.248   2.148  10.601  1.00  0.00    -0.215 NA
ATOM     16  C   UNL     1     -25.085   4.039   9.996  1.00  0.00    +0.150 A 
ATOM     17  C   UNL     1     -27.190   4.274   9.373  1.00  0.00    +0.168 A 
ATOM     18  C   UNL     1     -28.978   3.003   9.859  1.00  0.00    +0.133 A 
ATOM     19  N   UNL     1     -25.082   5.135   9.239  1.00  0.00    -0.174 NA
ATOM     20  N   UNL     1     -26.389   5.295   8.856  1.00  0.00    -0.215 N 
ATOM     21  N   UNL     1     -28.515   4.087   9.212  1.00  0.00    -0.213 NA
BRANCH  18  22
ATOM     22  C   UNL     1     -30.455   2.732   9.764  1.00  0.00    +0.074 C 
ATOM     23  C   UNL     1     -30.798   1.349  10.294  1.00  0.00    +0.012 C 
ENDBRANCH  18  22
BRANCH  20  24
ATOM     24  C   UNL     1     -26.750   6.407   8.034  1.00  0.00    +0.067 A 
ATOM     25  C   UNL     1     -25.867   6.829   7.025  1.00  0.00    +0.028 A 
ATOM     26  C   UNL     1     -27.959   7.094   8.203  1.00  0.00    +0.028 A 
ATOM     27  C   UNL     1     -26.187   7.914   6.205  1.00  0.00    +0.002 A 
ATOM     28  C   UNL     1     -28.274   8.181   7.378  1.00  0.00    +0.002 A 
ATOM     29  C   UNL     1     -27.390   8.589   6.382  1.00  0.00    +0.000 A 
ENDBRANCH  20  24
ENDBRANCH   1  13
TORSDOF 6
ENDMDL
MODEL 6
REMARK VINA RESULT:    -9.562      3.607      8.255
REMARK INTER + INTRA:         -13.620
REMARK INTER:                 -12.367
REMARK INTRA:                  -1.253
REMARK UNBOUND:                -0.704
REMARK SMILES CCc1nc(Nc2c(CC)cccc2CC)c2cnn(-c3ccccc3)c2n1
REMARK SMILES IDX 6 1 7 3 8 4 11 5 14 6 12 7 13 8 9 9 10 10 15 11 16 12 5 13
REMARK SMILES IDX 17 14 4 15 18 16 27 17 3 18 19 19 20 20 28 21 2 22 1 23
REMARK SMILES IDX 21 24 22 25 26 26 23 27 25 28 24 29
REMARK H PARENT 6 2
ROOT
ATOM      1  N   UNL     1     -32.675   5.820   8.796  1.00  0.00    -0.339 N 
ATOM      2  H   UNL     1     -33.538   5.878   9.323  1.00  0.00    +0.168 HD
ENDROOT
BRANCH   1   3
ATOM      3  C   UNL     1     -32.855   6.209   7.444  1.00  0.00    +0.046 A 
ATOM      4  C   UNL     1     -31.983   7.165   6.863  1.00  0.00    -0.024 A 
ATOM      5  C   UNL     1     -32.168   7.550   5.524  1.00  0.00    +0.006 A 
ATOM      6  C   UNL     1     -33.926   5.689   6.680  1.00  0.00    -0.024 A 
ATOM      7  C   UNL     1     -33.206   7.020   4.769  1.00  0.00    +0.001 A 
ATOM      8  C   UNL     1     -34.077   6.099   5.341  1.00  0.00    +0.006 A 
BRANCH   4   9
ATOM      9  C   UNL     1     -30.833   7.790   7.624  1.00  0.00    +0.034 C 
ATOM     10  C   UNL     1     -29.855   8.496   6.695  1.00  0.00    +0.009 C 
ENDBRANCH   4   9
BRANCH   6  11
ATOM     11  C   UNL     1     -34.890   4.651   7.219  1.00  0.00    +0.034 C 
ATOM     12  C   UNL     1     -34.795   3.313   6.495  1.00  0.00    +0.009 C 
ENDBRANCH   6  11
ENDBRANCH   1   3
BRANCH   1  13
ATOM     13  C   UNL     1     -31.904   4.717   9.217  1.00  0.00    +0.145 A 
ATOM     14  C   UNL     1     -32.486   3.612   9.853  1.00  0.00    +0.082 A 
ATOM     15  N   UNL     1     -30.565   4.683   9.017  1.00  0.00    -0.215 NA
ATOM     16  C   UNL     1     -33.767   3.224  10.270  1.00  0.00    +0.150 A 
ATOM     17  C   UNL     1     -31.661   2.561  10.220  1.00  0.00    +0.168 A 
ATOM     18  C   UNL     1     -29.849   3.611   9.409  1.00  0.00    +0.133 A 
ATOM     19  N   UNL     1     -33.789   2.021  10.842  1.00  0.00    -0.174 NA
ATOM     20  N   UNL     1     -32.481   1.606  10.825  1.00  0.00    -0.215 N 
ATOM     21  N   UNL     1     -30.331   2.511  10.014  1.00  0.00    -0.213 NA
BRANCH  18  22
ATOM     22  C   UNL     1     -28.364   3.661   9.167  1.00  0.00    +0.074 C 
ATOM     23  C   UNL     1     -27.610   2.814  10.180  1.00  0.00    +0.012 C 
ENDBRANCH  18  22
BRANCH  20  24
ATOM     24  C   UNL     1     -32.139   0.339  11.390  1.00  0.00    +0.067 A 
ATOM     25  C   UNL     1     -31.390   0.299  12.579  1.00  0.00    +0.028 A 
ATOM     26  C   UNL     1     -32.524  -0.869  10.795  1.00  0.00    +0.028 A 
ATOM     27  C   UNL     1     -31.035  -0.923  13.158  1.00  0.00    +0.002 A 
ATOM     28  C   UNL     1     -32.166  -2.090  11.379  1.00  0.00    +0.002 A 
ATOM     29  C   UNL     1     -31.424  -2.116  12.557  1.00  0.00    +0.000 A 
ENDBRANCH  20  24
ENDBRANCH   1  13
TORSDOF 6
ENDMDL
MODEL 7
REMARK VINA RESULT:    -9.430      5.391      7.619
REMARK INTER + INTRA:         -13.443
REMARK INTER:                 -12.490
REMARK INTRA:                  -0.953
REMARK UNBOUND:                -0.704
REMARK SMILES CCc1nc(Nc2c(CC)cccc2CC)c2cnn(-c3ccccc3)c2n1
REMARK SMILES IDX 6 1 7 3 8 4 11 5 14 6 12 7 13 8 9 9 10 10 15 11 16 12 5 13
REMARK SMILES IDX 17 14 4 15 18 16 27 17 3 18 19 19 20 20 28 21 2 22 1 23
REMARK SMILES IDX 21 24 22 25 26 26 23 27 25 28 24 29
REMARK H PARENT 6 2
ROOT
ATOM      1  N   UNL     1     -26.430   1.513  11.274  1.00  0.00    -0.339 N 
ATOM      2  H   UNL     1     -25.490   1.437  10.907  1.00  0.00    +0.168 HD
ENDROOT
BRANCH   1   3
ATOM      3  C   UNL     1     -26.922   0.265  11.731  1.00  0.00    +0.046 A 
ATOM      4  C   UNL     1     -26.691  -0.908  10.967  1.00  0.00    -0.024 A 
ATOM      5  C   UNL     1     -27.185  -2.142  11.423  1.00  0.00    +0.006 A 
ATOM      6  C   UNL     1     -27.684   0.181  12.921  1.00  0.00    -0.024 A 
ATOM      7  C   UNL     1     -27.913  -2.224  12.603  1.00  0.00    +0.001 A 
ATOM      8  C   UNL     1     -28.160  -1.074  13.344  1.00  0.00    +0.006 A 
BRANCH   4   9
ATOM      9  C   UNL     1     -25.912  -0.896   9.669  1.00  0.00    +0.034 C 
ATOM     10  C   UNL     1     -25.337  -2.266   9.339  1.00  0.00    +0.009 C 
ENDBRANCH   4   9
BRANCH   6  11
ATOM     11  C   UNL     1     -27.959   1.382  13.804  1.00  0.00    +0.034 C 
ATOM     12  C   UNL     1     -29.273   1.272  14.569  1.00  0.00    +0.009 C 
ENDBRANCH   6  11
ENDBRANCH   1   3
BRANCH   1  13
ATOM     13  C   UNL     1     -27.182   2.449  10.534  1.00  0.00    +0.145 A 
ATOM     14  C   UNL     1     -26.581   3.559   9.925  1.00  0.00    +0.082 A 
ATOM     15  N   UNL     1     -28.520   2.306  10.379  1.00  0.00    -0.215 NA
ATOM     16  C   UNL     1     -25.294   4.106   9.827  1.00  0.00    +0.150 A 
ATOM     17  C   UNL     1     -27.387   4.422   9.200  1.00  0.00    +0.168 A 
ATOM     18  C   UNL     1     -29.217   3.200   9.651  1.00  0.00    +0.133 A 
ATOM     19  N   UNL     1     -25.252   5.217   9.093  1.00  0.00    -0.174 NA
ATOM     20  N   UNL     1     -26.551   5.426   8.707  1.00  0.00    -0.215 N 
ATOM     21  N   UNL     1     -28.716   4.281   9.029  1.00  0.00    -0.213 NA
BRANCH  18  22
ATOM     22  C   UNL     1     -30.702   2.979   9.545  1.00  0.00    +0.074 C 
ATOM     23  C   UNL     1     -31.117   1.679  10.215  1.00  0.00    +0.012 C 
ENDBRANCH  18  22
BRANCH  20  24
ATOM     24  C   UNL     1     -26.872   6.567   7.907  1.00  0.00    +0.067 A 
ATOM     25  C   UNL     1     -25.957   6.998   6.932  1.00  0.00    +0.028 A 
ATOM     26  C   UNL     1     -28.072   7.271   8.065  1.00  0.00    +0.028 A 
ATOM     27  C   UNL     1     -26.237   8.110   6.133  1.00  0.00    +0.002 A 
ATOM     28  C   UNL     1     -28.348   8.384   7.262  1.00  0.00    +0.002 A 
ATOM     29  C   UNL     1     -27.432   8.803   6.299  1.00  0.00    +0.000 A 
ENDBRANCH  20  24
ENDBRANCH   1  13
TORSDOF 6
ENDMDL
MODEL 8
REMARK VINA RESULT:    -9.304      3.554      8.246
REMARK INTER + INTRA:         -13.271
REMARK INTER:                 -12.089
REMARK INTRA:                  -1.183
REMARK UNBOUND:                -0.704
REMARK SMILES CCc1nc(Nc2c(CC)cccc2CC)c2cnn(-c3ccccc3)c2n1
REMARK SMILES IDX 6 1 7 3 8 4 11 5 14 6 12 7 13 8 9 9 10 10 15 11 16 12 5 13
REMARK SMILES IDX 17 14 4 15 18 16 27 17 3 18 19 19 20 20 28 21 2 22 1 23
REMARK SMILES IDX 21 24 22 25 26 26 23 27 25 28 24 29
REMARK H PARENT 6 2
ROOT
ATOM      1  N   UNL     1     -32.492   5.903   8.835  1.00  0.00    -0.339 N 
ATOM      2  H   UNL     1     -33.332   5.992   9.393  1.00  0.00    +0.168 HD
ENDROOT
BRANCH   1   3
ATOM      3  C   UNL     1     -32.706   6.299   7.491  1.00  0.00    +0.046 A 
ATOM      4  C   UNL     1     -33.804   5.770   6.765  1.00  0.00    -0.024 A 
ATOM      5  C   UNL     1     -34.008   6.162   5.431  1.00  0.00    +0.006 A 
ATOM      6  C   UNL     1     -31.808   7.184   6.848  1.00  0.00    -0.024 A 
ATOM      7  C   UNL     1     -33.138   7.049   4.810  1.00  0.00    +0.001 A 
ATOM      8  C   UNL     1     -32.049   7.554   5.511  1.00  0.00    +0.006 A 
BRANCH   4   9
ATOM      9  C   UNL     1     -34.790   4.795   7.372  1.00  0.00    +0.034 C 
ATOM     10  C   UNL     1     -35.799   5.495   8.272  1.00  0.00    +0.009 C 
ENDBRANCH   4   9
BRANCH   6  11
ATOM     11  C   UNL     1     -30.624   7.809   7.558  1.00  0.00    +0.034 C 
ATOM     12  C   UNL     1     -29.977   8.937   6.763  1.00  0.00    +0.009 C 
ENDBRANCH   6  11
ENDBRANCH   1   3
BRANCH   1  13
ATOM     13  C   UNL     1     -31.748   4.771   9.229  1.00  0.00    +0.145 A 
ATOM     14  C   UNL     1     -32.349   3.684   9.878  1.00  0.00    +0.082 A 
ATOM     15  N   UNL     1     -30.417   4.691   8.988  1.00  0.00    -0.215 NA
ATOM     16  C   UNL     1     -33.630   3.339  10.332  1.00  0.00    +0.150 A 
ATOM     17  C   UNL     1     -31.551   2.603  10.215  1.00  0.00    +0.168 A 
ATOM     18  C   UNL     1     -29.728   3.593   9.354  1.00  0.00    +0.133 A 
ATOM     19  N   UNL     1     -33.676   2.135  10.900  1.00  0.00    -0.174 NA
ATOM     20  N   UNL     1     -32.386   1.675  10.842  1.00  0.00    -0.215 N 
ATOM     21  N   UNL     1     -30.230   2.508   9.969  1.00  0.00    -0.213 NA
BRANCH  18  22
ATOM     22  C   UNL     1     -28.251   3.591   9.067  1.00  0.00    +0.074 C 
ATOM     23  C   UNL     1     -27.770   4.968   8.637  1.00  0.00    +0.012 C 
ENDBRANCH  18  22
BRANCH  20  24
ATOM     24  C   UNL     1     -32.071   0.393  11.391  1.00  0.00    +0.067 A 
ATOM     25  C   UNL     1     -31.320   0.322  12.578  1.00  0.00    +0.028 A 
ATOM     26  C   UNL     1     -32.486  -0.799  10.783  1.00  0.00    +0.028 A 
ATOM     27  C   UNL     1     -30.992  -0.914  13.141  1.00  0.00    +0.002 A 
ATOM     28  C   UNL     1     -32.155  -2.034  11.353  1.00  0.00    +0.002 A 
ATOM     29  C   UNL     1     -31.410  -2.091  12.528  1.00  0.00    +0.000 A 
ENDBRANCH  20  24
ENDBRANCH   1  13
TORSDOF 6
ENDMDL
MODEL 9
REMARK VINA RESULT:    -9.130      5.682      8.276
REMARK INTER + INTRA:         -13.036
REMARK INTER:                 -11.964
REMARK INTRA:                  -1.072
REMARK UNBOUND:                -0.704
REMARK SMILES CCc1nc(Nc2c(CC)cccc2CC)c2cnn(-c3ccccc3)c2n1
REMARK SMILES IDX 6 1 7 3 8 4 11 5 14 6 12 7 13 8 9 9 10 10 15 11 16 12 5 13
REMARK SMILES IDX 17 14 4 15 18 16 27 17 3 18 19 19 20 20 28 21 2 22 1 23
REMARK SMILES IDX 21 24 22 25 26 26 23 27 25 28 24 29
REMARK H PARENT 6 2
ROOT
ATOM      1  N   UNL     1     -27.790   0.957  12.710  1.00  0.00    -0.339 N 
ATOM      2  H   UNL     1     -26.788   0.964  12.855  1.00  0.00    +0.168 HD
ENDROOT
BRANCH   1   3
ATOM      3  C   UNL     1     -28.345  -0.331  12.916  1.00  0.00    +0.046 A 
ATOM      4  C   UNL     1     -29.482  -0.483  13.751  1.00  0.00    -0.024 A 
ATOM      5  C   UNL     1     -30.025  -1.763  13.957  1.00  0.00    +0.006 A 
ATOM      6  C   UNL     1     -27.750  -1.475  12.335  1.00  0.00    -0.024 A 
ATOM      7  C   UNL     1     -29.453  -2.882  13.366  1.00  0.00    +0.001 A 
ATOM      8  C   UNL     1     -28.326  -2.739  12.563  1.00  0.00    +0.006 A 
BRANCH   4   9
ATOM      9  C   UNL     1     -30.157   0.687  14.434  1.00  0.00    +0.034 C 
ATOM     10  C   UNL     1     -29.617   0.914  15.839  1.00  0.00    +0.009 C 
ENDBRANCH   4   9
BRANCH   6  11
ATOM     11  C   UNL     1     -26.548  -1.396  11.416  1.00  0.00    +0.034 C 
ATOM     12  C   UNL     1     -26.914  -1.033   9.982  1.00  0.00    +0.009 C 
ENDBRANCH   6  11
ENDBRANCH   1   3
BRANCH   1  13
ATOM     13  C   UNL     1     -28.149   1.826  11.658  1.00  0.00    +0.145 A 
ATOM     14  C   UNL     1     -27.245   2.760  11.133  1.00  0.00    +0.082 A 
ATOM     15  N   UNL     1     -29.387   1.788  11.111  1.00  0.00    -0.215 NA
ATOM     16  C   UNL     1     -25.923   3.158  11.377  1.00  0.00    +0.150 A 
ATOM     17  C   UNL     1     -27.670   3.565  10.089  1.00  0.00    +0.168 A 
ATOM     18  C   UNL     1     -29.704   2.613  10.094  1.00  0.00    +0.133 A 
ATOM     19  N   UNL     1     -25.508   4.124  10.559  1.00  0.00    -0.174 NA
ATOM     20  N   UNL     1     -26.592   4.391   9.762  1.00  0.00    -0.215 N 
ATOM     21  N   UNL     1     -28.894   3.525   9.529  1.00  0.00    -0.213 NA
BRANCH  18  22
ATOM     22  C   UNL     1     -31.107   2.520   9.556  1.00  0.00    +0.074 C 
ATOM     23  C   UNL     1     -32.018   1.770  10.515  1.00  0.00    +0.012 C 
ENDBRANCH  18  22
BRANCH  20  24
ATOM     24  C   UNL     1     -26.498   5.410   8.763  1.00  0.00    +0.067 A 
ATOM     25  C   UNL     1     -25.305   5.544   8.032  1.00  0.00    +0.028 A 
ATOM     26  C   UNL     1     -27.558   6.284   8.491  1.00  0.00    +0.028 A 
ATOM     27  C   UNL     1     -25.177   6.530   7.051  1.00  0.00    +0.002 A 
ATOM     28  C   UNL     1     -27.424   7.270   7.507  1.00  0.00    +0.002 A 
ATOM     29  C   UNL     1     -26.237   7.393   6.789  1.00  0.00    +0.000 A 
ENDBRANCH  20  24
ENDBRANCH   1  13
TORSDOF 6
ENDMDL
