MODEL 1
REMARK VINA RESULT:    -7.658      0.000      0.000
REMARK INTER + INTRA:          -8.983
REMARK INTER:                  -8.553
REMARK INTRA:                  -0.429
REMARK UNBOUND:                -0.429
REMARK SMILES O=CNc1ccccc1-c1ccccc1
REMARK SMILES IDX 4 1 9 2 8 3 7 4 6 5 5 6 3 7 1 8 2 9 10 11 11 12 15 13 12 14
REMARK SMILES IDX 14 15 13 16
REMARK H PARENT 3 10
ROOT
ATOM      1  C   UNL     1     -32.628   6.812   7.252  1.00  0.00    +0.048 A 
ATOM      2  C   UNL     1     -32.100   7.723   6.304  1.00  0.00    +0.005 A 
ATOM      3  C   UNL     1     -32.528   7.642   4.964  1.00  0.00    +0.011 A 
ATOM      4  C   UNL     1     -33.457   6.684   4.563  1.00  0.00    +0.001 A 
ATOM      5  C   UNL     1     -33.972   5.793   5.497  1.00  0.00    +0.002 A 
ATOM      6  C   UNL     1     -33.562   5.856   6.831  1.00  0.00    +0.027 A 
ENDROOT
BRANCH   1   7
ATOM      7  N   UNL     1     -32.192   6.901   8.596  1.00  0.00    -0.328 N 
ATOM      8  O   UNL     1     -31.019   4.901   8.966  1.00  0.00    -0.279 OA
ATOM      9  C   UNL     1     -31.460   5.987   9.313  1.00  0.00    +0.341 C 
ATOM     10  H   UNL     1     -32.454   7.746   9.094  1.00  0.00    +0.169 HD
ENDBRANCH   1   7
BRANCH   2  11
ATOM     11  C   UNL     1     -31.117   8.756   6.664  1.00  0.00    -0.016 A 
ATOM     12  C   UNL     1     -31.531  10.061   6.971  1.00  0.00    +0.009 A 
ATOM     13  C   UNL     1     -29.746   8.460   6.690  1.00  0.00    +0.009 A 
ATOM     14  C   UNL     1     -30.596  11.046   7.293  1.00  0.00    +0.001 A 
ATOM     15  C   UNL     1     -28.811   9.446   7.014  1.00  0.00    +0.001 A 
ATOM     16  C   UNL     1     -29.237  10.738   7.313  1.00  0.00    +0.000 A 
ENDBRANCH   2  11
TORSDOF 2
ENDMDL
MODEL 2
REMARK VINA RESULT:    -7.153      2.127      5.378
REMARK INTER + INTRA:          -8.419
REMARK INTER:                  -8.016
REMARK INTRA:                  -0.403
REMARK UNBOUND:                -0.429
REMARK SMILES O=CNc1ccccc1-c1ccccc1
REMARK SMILES IDX 4 1 9 2 8 3 7 4 6 5 5 6 3 7 1 8 2 9 10 11 11 12 15 13 12 14
REMARK SMILES IDX 14 15 13 16
REMARK H PARENT 3 10
ROOT
ATOM      1  C   UNL     1     -32.736   6.616   7.438  1.00  0.00    +0.048 A 
ATOM      2  C   UNL     1     -33.875   6.039   6.823  1.00  0.00    +0.005 A 
ATOM      3  C   UNL     1     -34.083   6.239   5.444  1.00  0.00    +0.011 A 
ATOM      4  C   UNL     1     -33.190   6.991   4.684  1.00  0.00    +0.001 A 
ATOM      5  C   UNL     1     -32.074   7.555   5.292  1.00  0.00    +0.002 A 
ATOM      6  C   UNL     1     -31.849   7.369   6.658  1.00  0.00    +0.027 A 
ENDROOT
BRANCH   1   7
ATOM      7  N   UNL     1     -32.535   6.410   8.825  1.00  0.00    -0.328 N 
ATOM      8  O   UNL     1     -30.831   4.799   8.936  1.00  0.00    -0.279 OA
ATOM      9  C   UNL     1     -31.644   5.562   9.435  1.00  0.00    +0.341 C 
ATOM     10  H   UNL     1     -33.121   6.957   9.446  1.00  0.00    +0.169 HD
ENDBRANCH   1   7
BRANCH   2  11
ATOM     11  C   UNL     1     -34.854   5.236   7.570  1.00  0.00    -0.016 A 
ATOM     12  C   UNL     1     -34.857   3.837   7.470  1.00  0.00    +0.009 A 
ATOM     13  C   UNL     1     -35.814   5.855   8.384  1.00  0.00    +0.009 A 
ATOM     14  C   UNL     1     -35.799   3.075   8.163  1.00  0.00    +0.001 A 
ATOM     15  C   UNL     1     -36.757   5.093   9.079  1.00  0.00    +0.001 A 
ATOM     16  C   UNL     1     -36.749   3.704   8.966  1.00  0.00    +0.000 A 
ENDBRANCH   2  11
TORSDOF 2
ENDMDL
MODEL 3
REMARK VINA RESULT:    -7.091      4.310      5.963
REMARK INTER + INTRA:          -8.349
REMARK INTER:                  -7.916
REMARK INTRA:                  -0.434
REMARK UNBOUND:                -0.429
REMARK SMILES O=CNc1ccccc1-c1ccccc1
REMARK SMILES IDX 4 1 9 2 8 3 7 4 6 5 5 6 3 7 1 8 2 9 10 11 11 12 15 13 12 14
REMARK SMILES IDX 14 15 13 16
REMARK H PARENT 3 10
ROOT
ATOM      1  C   UNL     1     -35.146   3.798   7.168  1.00  0.00    +0.048 A 
ATOM      2  C   UNL     1     -35.138   5.097   7.733  1.00  0.00    +0.005 A 
ATOM      3  C   UNL     1     -34.572   6.159   7.001  1.00  0.00    +0.011 A 
ATOM      4  C   UNL     1     -34.025   5.949   5.736  1.00  0.00    +0.001 A 
ATOM      5  C   UNL     1     -34.036   4.673   5.186  1.00  0.00    +0.002 A 
ATOM      6  C   UNL     1     -34.592   3.605   5.896  1.00  0.00    +0.027 A 
ENDROOT
BRANCH   1   7
ATOM      7  N   UNL     1     -35.717   2.737   7.912  1.00  0.00    -0.328 N 
ATOM      8  O   UNL     1     -33.908   1.803   9.082  1.00  0.00    -0.279 OA
ATOM      9  C   UNL     1     -35.087   1.866   8.767  1.00  0.00    +0.341 C 
ATOM     10  H   UNL     1     -36.716   2.601   7.799  1.00  0.00    +0.169 HD
ENDBRANCH   1   7
BRANCH   2  11
ATOM     11  C   UNL     1     -35.699   5.385   9.062  1.00  0.00    -0.016 A 
ATOM     12  C   UNL     1     -37.004   5.879   9.196  1.00  0.00    +0.009 A 
ATOM     13  C   UNL     1     -34.932   5.184  10.220  1.00  0.00    +0.009 A 
ATOM     14  C   UNL     1     -37.530   6.170  10.456  1.00  0.00    +0.001 A 
ATOM     15  C   UNL     1     -35.458   5.474  11.481  1.00  0.00    +0.001 A 
ATOM     16  C   UNL     1     -36.756   5.968  11.597  1.00  0.00    +0.000 A 
ENDBRANCH   2  11
TORSDOF 2
ENDMDL
MODEL 4
REMARK VINA RESULT:    -7.073      3.095      5.648
REMARK INTER + INTRA:          -8.330
REMARK INTER:                  -7.988
REMARK INTRA:                  -0.342
REMARK UNBOUND:                -0.429
REMARK SMILES O=CNc1ccccc1-c1ccccc1
REMARK SMILES IDX 4 1 9 2 8 3 7 4 6 5 5 6 3 7 1 8 2 9 10 11 11 12 15 13 12 14
REMARK SMILES IDX 14 15 13 16
REMARK H PARENT 3 10
ROOT
ATOM      1  C   UNL     1     -34.295   6.203   6.853  1.00  0.00    +0.048 A 
ATOM      2  C   UNL     1     -34.881   5.190   7.653  1.00  0.00    +0.005 A 
ATOM      3  C   UNL     1     -35.026   3.895   7.120  1.00  0.00    +0.011 A 
ATOM      4  C   UNL     1     -34.603   3.599   5.826  1.00  0.00    +0.001 A 
ATOM      5  C   UNL     1     -34.029   4.596   5.045  1.00  0.00    +0.002 A 
ATOM      6  C   UNL     1     -33.875   5.887   5.555  1.00  0.00    +0.027 A 
ENDROOT
BRANCH   1   7
ATOM      7  N   UNL     1     -34.153   7.502   7.398  1.00  0.00    -0.328 N 
ATOM      8  O   UNL     1     -31.843   7.915   7.336  1.00  0.00    -0.279 OA
ATOM      9  C   UNL     1     -32.999   8.221   7.588  1.00  0.00    +0.341 C 
ATOM     10  H   UNL     1     -35.012   7.961   7.685  1.00  0.00    +0.169 HD
ENDBRANCH   1   7
BRANCH   2  11
ATOM     11  C   UNL     1     -35.347   5.438   9.026  1.00  0.00    -0.016 A 
ATOM     12  C   UNL     1     -34.574   5.041  10.127  1.00  0.00    +0.009 A 
ATOM     13  C   UNL     1     -36.581   6.063   9.259  1.00  0.00    +0.009 A 
ATOM     14  C   UNL     1     -35.026   5.259  11.429  1.00  0.00    +0.001 A 
ATOM     15  C   UNL     1     -37.033   6.282  10.563  1.00  0.00    +0.001 A 
ATOM     16  C   UNL     1     -36.255   5.878  11.646  1.00  0.00    +0.000 A 
ENDBRANCH   2  11
TORSDOF 2
ENDMDL
MODEL 5
REMARK VINA RESULT:    -7.023      8.674     10.288
REMARK INTER + INTRA:          -8.274
REMARK INTER:                  -7.815
REMARK INTRA:                  -0.459
REMARK UNBOUND:                -0.429
REMARK SMILES O=CNc1ccccc1-c1ccccc1
REMARK SMILES IDX 4 1 9 2 8 3 7 4 6 5 5 6 3 7 1 8 2 9 10 11 11 12 15 13 12 14
REMARK SMILES IDX 14 15 13 16
REMARK H PARENT 3 10
ROOT
ATOM      1  C   UNL     1     -25.779   1.154  11.575  1.00  0.00    +0.048 A 
ATOM      2  C   UNL     1     -26.786   2.043  12.026  1.00  0.00    +0.005 A 
ATOM      3  C   UNL     1     -26.516   3.425  12.059  1.00  0.00    +0.011 A 
ATOM      4  C   UNL     1     -25.278   3.924  11.658  1.00  0.00    +0.001 A 
ATOM      5  C   UNL     1     -24.293   3.048  11.216  1.00  0.00    +0.002 A 
ATOM      6  C   UNL     1     -24.541   1.674  11.174  1.00  0.00    +0.027 A 
ENDROOT
BRANCH   1   7
ATOM      7  N   UNL     1     -26.061  -0.233  11.545  1.00  0.00    -0.328 N 
ATOM      8  O   UNL     1     -26.261  -0.741   9.261  1.00  0.00    -0.279 OA
ATOM      9  C   UNL     1     -26.269  -1.033  10.447  1.00  0.00    +0.341 C 
ATOM     10  H   UNL     1     -26.116  -0.696  12.446  1.00  0.00    +0.169 HD
ENDBRANCH   1   7
BRANCH   2  11
ATOM     11  C   UNL     1     -28.112   1.579  12.463  1.00  0.00    -0.016 A 
ATOM     12  C   UNL     1     -29.141   1.374  11.533  1.00  0.00    +0.009 A 
ATOM     13  C   UNL     1     -28.375   1.347  13.821  1.00  0.00    +0.009 A 
ATOM     14  C   UNL     1     -30.404   0.953  11.950  1.00  0.00    +0.001 A 
ATOM     15  C   UNL     1     -29.639   0.924  14.239  1.00  0.00    +0.001 A 
ATOM     16  C   UNL     1     -30.653   0.729  13.303  1.00  0.00    +0.000 A 
ENDBRANCH   2  11
TORSDOF 2
ENDMDL
MODEL 6
REMARK VINA RESULT:    -6.984      1.858      3.260
REMARK INTER + INTRA:          -8.230
REMARK INTER:                  -8.189
REMARK INTRA:                  -0.041
REMARK UNBOUND:                -0.429
REMARK SMILES O=CNc1ccccc1-c1ccccc1
REMARK SMILES IDX 4 1 9 2 8 3 7 4 6 5 5 6 3 7 1 8 2 9 10 11 11 12 15 13 12 14
REMARK SMILES IDX 14 15 13 16
REMARK H PARENT 3 10
ROOT
ATOM      1  C   UNL     1     -33.137   6.355   7.330  1.00  0.00    +0.048 A 
ATOM      2  C   UNL     1     -32.003   6.846   8.024  1.00  0.00    +0.005 A 
ATOM      3  C   UNL     1     -31.503   6.117   9.121  1.00  0.00    +0.011 A 
ATOM      4  C   UNL     1     -32.106   4.929   9.529  1.00  0.00    +0.001 A 
ATOM      5  C   UNL     1     -33.218   4.452   8.845  1.00  0.00    +0.002 A 
ATOM      6  C   UNL     1     -33.730   5.159   7.754  1.00  0.00    +0.027 A 
ENDROOT
BRANCH   1   7
ATOM      7  N   UNL     1     -33.632   7.094   6.228  1.00  0.00    -0.328 N 
ATOM      8  O   UNL     1     -34.027   5.480   4.569  1.00  0.00    -0.279 OA
ATOM      9  C   UNL     1     -34.019   6.624   4.997  1.00  0.00    +0.341 C 
ATOM     10  H   UNL     1     -33.711   8.096   6.364  1.00  0.00    +0.169 HD
ENDBRANCH   1   7
BRANCH   2  11
ATOM     11  C   UNL     1     -31.322   8.093   7.643  1.00  0.00    -0.016 A 
ATOM     12  C   UNL     1     -29.979   8.080   7.240  1.00  0.00    +0.009 A 
ATOM     13  C   UNL     1     -32.000   9.320   7.691  1.00  0.00    +0.009 A 
ATOM     14  C   UNL     1     -29.327   9.266   6.898  1.00  0.00    +0.001 A 
ATOM     15  C   UNL     1     -31.349  10.507   7.348  1.00  0.00    +0.001 A 
ATOM     16  C   UNL     1     -30.012  10.478   6.953  1.00  0.00    +0.000 A 
ENDBRANCH   2  11
TORSDOF 2
ENDMDL
MODEL 7
REMARK VINA RESULT:    -6.602      3.231      6.128
REMARK INTER + INTRA:          -7.803
REMARK INTER:                  -7.491
REMARK INTRA:                  -0.312
REMARK UNBOUND:                -0.429
REMARK SMILES O=CNc1ccccc1-c1ccccc1
REMARK SMILES IDX 4 1 9 2 8 3 7 4 6 5 5 6 3 7 1 8 2 9 10 11 11 12 15 13 12 14
REMARK SMILES IDX 14 15 13 16
REMARK H PARENT 3 10
ROOT
ATOM      1  C   UNL     1     -33.719   5.531   8.073  1.00  0.00    +0.048 A 
ATOM      2  C   UNL     1     -32.685   5.123   8.952  1.00  0.00    +0.005 A 
ATOM      3  C   UNL     1     -31.472   5.839   8.961  1.00  0.00    +0.011 A 
ATOM      4  C   UNL     1     -31.278   6.934   8.121  1.00  0.00    +0.001 A 
ATOM      5  C   UNL     1     -32.295   7.329   7.260  1.00  0.00    +0.002 A 
ATOM      6  C   UNL     1     -33.506   6.634   7.236  1.00  0.00    +0.027 A 
ENDROOT
BRANCH   1   7
ATOM      7  N   UNL     1     -34.935   4.806   8.072  1.00  0.00    -0.328 N 
ATOM      8  O   UNL     1     -36.455   6.208   9.184  1.00  0.00    -0.279 OA
ATOM      9  C   UNL     1     -36.147   5.180   8.599  1.00  0.00    +0.341 C 
ATOM     10  H   UNL     1     -34.910   3.895   7.625  1.00  0.00    +0.169 HD
ENDBRANCH   1   7
BRANCH   2  11
ATOM     11  C   UNL     1     -32.828   3.977   9.862  1.00  0.00    -0.016 A 
ATOM     12  C   UNL     1     -33.683   4.046  10.972  1.00  0.00    +0.009 A 
ATOM     13  C   UNL     1     -32.099   2.798   9.645  1.00  0.00    +0.009 A 
ATOM     14  C   UNL     1     -33.803   2.965  11.846  1.00  0.00    +0.001 A 
ATOM     15  C   UNL     1     -32.221   1.715  10.520  1.00  0.00    +0.001 A 
ATOM     16  C   UNL     1     -33.071   1.801  11.620  1.00  0.00    +0.000 A 
ENDBRANCH   2  11
TORSDOF 2
ENDMDL
MODEL 8
REMARK VINA RESULT:    -6.287      8.157      9.575
REMARK INTER + INTRA:          -7.451
REMARK INTER:                  -6.997
REMARK INTRA:                  -0.455
REMARK UNBOUND:                -0.429
REMARK SMILES O=CNc1ccccc1-c1ccccc1
REMARK SMILES IDX 4 1 9 2 8 3 7 4 6 5 5 6 3 7 1 8 2 9 10 11 11 12 15 13 12 14
REMARK SMILES IDX 14 15 13 16
REMARK H PARENT 3 10
ROOT
ATOM      1  C   UNL     1     -27.291  -0.543  11.749  1.00  0.00    +0.048 A 
ATOM      2  C   UNL     1     -27.887   0.743  11.728  1.00  0.00    +0.005 A 
ATOM      3  C   UNL     1     -29.239   0.877  12.100  1.00  0.00    +0.011 A 
ATOM      4  C   UNL     1     -29.992  -0.230  12.484  1.00  0.00    +0.001 A 
ATOM      5  C   UNL     1     -29.403  -1.489  12.503  1.00  0.00    +0.002 A 
ATOM      6  C   UNL     1     -28.063  -1.645  12.139  1.00  0.00    +0.027 A 
ENDROOT
BRANCH   1   7
ATOM      7  N   UNL     1     -25.931  -0.668  11.374  1.00  0.00    -0.328 N 
ATOM      8  O   UNL     1     -25.998  -1.135   9.074  1.00  0.00    -0.279 OA
ATOM      9  C   UNL     1     -25.416  -0.940  10.131  1.00  0.00    +0.341 C 
ATOM     10  H   UNL     1     -25.252  -0.542  12.117  1.00  0.00    +0.169 HD
ENDBRANCH   1   7
BRANCH   2  11
ATOM     11  C   UNL     1     -27.146   1.950  11.333  1.00  0.00    -0.016 A 
ATOM     12  C   UNL     1     -27.083   2.341   9.987  1.00  0.00    +0.009 A 
ATOM     13  C   UNL     1     -26.477   2.724  12.292  1.00  0.00    +0.009 A 
ATOM     14  C   UNL     1     -26.364   3.477   9.609  1.00  0.00    +0.001 A 
ATOM     15  C   UNL     1     -25.758   3.861  11.914  1.00  0.00    +0.001 A 
ATOM     16  C   UNL     1     -25.701   4.235  10.573  1.00  0.00    +0.000 A 
ENDBRANCH   2  11
TORSDOF 2
ENDMDL
MODEL 9
REMARK VINA RESULT:    -6.133      9.312     11.792
REMARK INTER + INTRA:          -7.279
REMARK INTER:                  -6.850
REMARK INTRA:                  -0.429
REMARK UNBOUND:                -0.429
REMARK SMILES O=CNc1ccccc1-c1ccccc1
REMARK SMILES IDX 4 1 9 2 8 3 7 4 6 5 5 6 3 7 1 8 2 9 10 11 11 12 15 13 12 14
REMARK SMILES IDX 14 15 13 16
REMARK H PARENT 3 10
ROOT
ATOM      1  C   UNL     1     -24.366  -0.283  10.718  1.00  0.00    +0.048 A 
ATOM      2  C   UNL     1     -25.308  -1.288  10.386  1.00  0.00    +0.005 A 
ATOM      3  C   UNL     1     -24.855  -2.483   9.794  1.00  0.00    +0.011 A 
ATOM      4  C   UNL     1     -23.501  -2.686   9.532  1.00  0.00    +0.001 A 
ATOM      5  C   UNL     1     -22.581  -1.697   9.861  1.00  0.00    +0.002 A 
ATOM      6  C   UNL     1     -23.010  -0.505  10.449  1.00  0.00    +0.027 A 
ENDROOT
BRANCH   1   7
ATOM      7  N   UNL     1     -24.832   0.914  11.314  1.00  0.00    -0.328 N 
ATOM      8  O   UNL     1     -24.706   2.510   9.597  1.00  0.00    -0.279 OA
ATOM      9  C   UNL     1     -24.960   2.154  10.737  1.00  0.00    +0.341 C 
ATOM     10  H   UNL     1     -25.106   0.850  12.289  1.00  0.00    +0.169 HD
ENDBRANCH   1   7
BRANCH   2  11
ATOM     11  C   UNL     1     -26.749  -1.134  10.636  1.00  0.00    -0.016 A 
ATOM     12  C   UNL     1     -27.356  -1.759  11.736  1.00  0.00    +0.009 A 
ATOM     13  C   UNL     1     -27.547  -0.373   9.769  1.00  0.00    +0.009 A 
ATOM     14  C   UNL     1     -28.727  -1.628  11.961  1.00  0.00    +0.001 A 
ATOM     15  C   UNL     1     -28.919  -0.242   9.995  1.00  0.00    +0.001 A 
ATOM     16  C   UNL     1     -29.508  -0.871  11.090  1.00  0.00    +0.000 A 
ENDBRANCH   2  11
TORSDOF 2
ENDMDL
