MODEL 1
REMARK VINA RESULT:    -9.224      0.000      0.000
REMARK INTER + INTRA:         -11.479
REMARK INTER:                 -10.842
REMARK INTRA:                  -0.637
REMARK UNBOUND:                -0.637
REMARK SMILES N=C(NN=C1C(=O)Nc2ccccc21)NN(O)O
REMARK SMILES IDX 15 1 2 2 1 3 3 4 16 8 17 9 18 11 4 13 5 14 6 15 14 16 7 17
REMARK SMILES IDX 8 18 9 19 13 20 10 21 12 22 11 23
REMARK H PARENT 15 5 1 6 3 7 17 10 18 12 8 24
ROOT
ATOM      1  N   UNL     1     -25.244   5.147   8.197  1.00  0.00    -0.240 N 
ATOM      2  C   UNL     1     -26.333   5.989   8.198  1.00  0.00    +0.227 C 
ATOM      3  N   UNL     1     -27.330   5.900   9.034  1.00  0.00    -0.267 NA
ATOM      4  N   UNL     1     -26.281   6.995   7.269  1.00  0.00    -0.246 N 
ATOM      5  H   UNL     1     -24.753   5.087   7.314  1.00  0.00    +0.190 HD
ATOM      6  H   UNL     1     -27.931   6.691   8.748  1.00  0.00    +0.191 HD
ATOM      7  H   UNL     1     -25.381   7.130   6.798  1.00  0.00    +0.193 HD
ENDROOT
BRANCH   1   8
ATOM      8  N   UNL     1     -25.396   3.905   8.813  1.00  0.00    +0.033 NA
BRANCH   8   9
ATOM      9  O   UNL     1     -26.632   3.271   8.399  1.00  0.00    -0.271 OA
ATOM     10  H   UNL     1     -26.670   2.562   9.083  1.00  0.00    +0.243 HD
ENDBRANCH   8   9
BRANCH   8  11
ATOM     11  O   UNL     1     -25.478   4.086  10.244  1.00  0.00    -0.271 OA
ATOM     12  H   UNL     1     -24.552   3.900  10.474  1.00  0.00    +0.243 HD
ENDBRANCH   8  11
ENDBRANCH   1   8
BRANCH   4  13
ATOM     13  N   UNL     1     -27.251   7.956   7.144  1.00  0.00    -0.167 NA
ATOM     14  C   UNL     1     -26.883   9.063   6.579  1.00  0.00    +0.158 C 
ATOM     15  C   UNL     1     -25.501   9.441   6.037  1.00  0.00    +0.276 C 
ATOM     16  C   UNL     1     -27.737  10.220   6.333  1.00  0.00    +0.031 A 
ATOM     17  O   UNL     1     -24.525   8.720   6.075  1.00  0.00    -0.267 OA
ATOM     18  N   UNL     1     -25.633  10.717   5.536  1.00  0.00    -0.320 N 
ATOM     19  C   UNL     1     -26.936  11.177   5.708  1.00  0.00    +0.051 A 
ATOM     20  C   UNL     1     -29.069  10.436   6.616  1.00  0.00    +0.013 A 
ATOM     21  C   UNL     1     -27.446  12.403   5.337  1.00  0.00    +0.027 A 
ATOM     22  C   UNL     1     -29.601  11.673   6.245  1.00  0.00    +0.001 A 
ATOM     23  C   UNL     1     -28.797  12.646   5.614  1.00  0.00    +0.002 A 
ATOM     24  H   UNL     1     -24.875  11.231   5.114  1.00  0.00    +0.170 HD
ENDBRANCH   4  13
TORSDOF 4
ENDMDL
MODEL 2
REMARK VINA RESULT:    -8.887      1.450      1.839
REMARK INTER + INTRA:         -11.083
REMARK INTER:                 -10.640
REMARK INTRA:                  -0.442
REMARK UNBOUND:                -0.637
REMARK SMILES N=C(NN=C1C(=O)Nc2ccccc21)NN(O)O
REMARK SMILES IDX 15 1 2 2 1 3 3 4 16 8 17 9 18 11 4 13 5 14 6 15 14 16 7 17
REMARK SMILES IDX 8 18 9 19 13 20 10 21 12 22 11 23
REMARK H PARENT 15 5 1 6 3 7 17 10 18 12 8 24
ROOT
ATOM      1  N   UNL     1     -25.271   3.646   9.023  1.00  0.00    -0.240 N 
ATOM      2  C   UNL     1     -26.335   4.513   8.933  1.00  0.00    +0.227 C 
ATOM      3  N   UNL     1     -27.496   4.312   9.492  1.00  0.00    -0.267 NA
ATOM      4  N   UNL     1     -26.078   5.667   8.240  1.00  0.00    -0.246 N 
ATOM      5  H   UNL     1     -24.590   3.728   8.277  1.00  0.00    +0.190 HD
ATOM      6  H   UNL     1     -28.020   5.163   9.228  1.00  0.00    +0.191 HD
ATOM      7  H   UNL     1     -25.095   5.852   8.017  1.00  0.00    +0.193 HD
ENDROOT
BRANCH   1   8
ATOM      8  N   UNL     1     -25.553   2.320   9.349  1.00  0.00    +0.033 NA
BRANCH   8   9
ATOM      9  O   UNL     1     -24.406   1.470   9.098  1.00  0.00    -0.271 OA
ATOM     10  H   UNL     1     -24.576   0.786   9.787  1.00  0.00    +0.243 HD
ENDBRANCH   8   9
BRANCH   8  11
ATOM     11  O   UNL     1     -26.623   1.836   8.509  1.00  0.00    -0.271 OA
ATOM     12  H   UNL     1     -26.147   1.122   8.051  1.00  0.00    +0.243 HD
ENDBRANCH   8  11
ENDBRANCH   1   8
BRANCH   4  13
ATOM     13  N   UNL     1     -26.998   6.671   8.079  1.00  0.00    -0.167 NA
ATOM     14  C   UNL     1     -26.636   7.657   7.321  1.00  0.00    +0.158 C 
ATOM     15  C   UNL     1     -25.306   7.853   6.585  1.00  0.00    +0.276 C 
ATOM     16  C   UNL     1     -27.444   8.828   6.999  1.00  0.00    +0.031 A 
ATOM     17  O   UNL     1     -24.376   7.074   6.625  1.00  0.00    -0.267 OA
ATOM     18  N   UNL     1     -25.422   9.052   5.919  1.00  0.00    -0.320 N 
ATOM     19  C   UNL     1     -26.668   9.627   6.159  1.00  0.00    +0.051 A 
ATOM     20  C   UNL     1     -28.720   9.179   7.388  1.00  0.00    +0.013 A 
ATOM     21  C   UNL     1     -27.145  10.823   5.668  1.00  0.00    +0.027 A 
ATOM     22  C   UNL     1     -29.219  10.389   6.898  1.00  0.00    +0.001 A 
ATOM     23  C   UNL     1     -28.439  11.201   6.048  1.00  0.00    +0.002 A 
ATOM     24  H   UNL     1     -24.690   9.444   5.347  1.00  0.00    +0.170 HD
ENDBRANCH   4  13
TORSDOF 4
ENDMDL
MODEL 3
REMARK VINA RESULT:    -8.757      1.866      2.624
REMARK INTER + INTRA:         -10.930
REMARK INTER:                 -10.291
REMARK INTRA:                  -0.639
REMARK UNBOUND:                -0.637
REMARK SMILES N=C(NN=C1C(=O)Nc2ccccc21)NN(O)O
REMARK SMILES IDX 15 1 2 2 1 3 3 4 16 8 17 9 18 11 4 13 5 14 6 15 14 16 7 17
REMARK SMILES IDX 8 18 9 19 13 20 10 21 12 22 11 23
REMARK H PARENT 15 5 1 6 3 7 17 10 18 12 8 24
ROOT
ATOM      1  N   UNL     1     -27.453   4.751   8.912  1.00  0.00    -0.240 N 
ATOM      2  C   UNL     1     -26.775   5.843   8.419  1.00  0.00    +0.227 C 
ATOM      3  N   UNL     1     -25.477   5.957   8.407  1.00  0.00    -0.267 NA
ATOM      4  N   UNL     1     -27.573   6.814   7.872  1.00  0.00    -0.246 N 
ATOM      5  H   UNL     1     -28.408   4.935   9.193  1.00  0.00    +0.190 HD
ATOM      6  H   UNL     1     -25.339   6.877   7.956  1.00  0.00    +0.191 HD
ATOM      7  H   UNL     1     -28.555   6.562   7.723  1.00  0.00    +0.193 HD
ENDROOT
BRANCH   1   8
ATOM      8  N   UNL     1     -26.775   3.933   9.815  1.00  0.00    +0.033 NA
BRANCH   8   9
ATOM      9  O   UNL     1     -26.169   4.718  10.871  1.00  0.00    -0.271 OA
ATOM     10  H   UNL     1     -25.973   5.534  10.355  1.00  0.00    +0.243 HD
ENDBRANCH   8   9
BRANCH   8  11
ATOM     11  O   UNL     1     -25.699   3.253   9.131  1.00  0.00    -0.271 OA
ATOM     12  H   UNL     1     -24.945   3.680   9.571  1.00  0.00    +0.243 HD
ENDBRANCH   8  11
ENDBRANCH   1   8
BRANCH   4  13
ATOM     13  N   UNL     1     -27.081   7.955   7.292  1.00  0.00    -0.167 NA
ATOM     14  C   UNL     1     -27.955   8.867   7.003  1.00  0.00    +0.158 C 
ATOM     15  C   UNL     1     -29.471   8.834   7.219  1.00  0.00    +0.276 C 
ATOM     16  C   UNL     1     -27.669  10.160   6.391  1.00  0.00    +0.031 A 
ATOM     17  O   UNL     1     -30.077   7.902   7.705  1.00  0.00    -0.267 OA
ATOM     18  N   UNL     1     -29.941  10.040   6.749  1.00  0.00    -0.320 N 
ATOM     19  C   UNL     1     -28.892  10.817   6.263  1.00  0.00    +0.051 A 
ATOM     20  C   UNL     1     -26.478  10.721   5.981  1.00  0.00    +0.013 A 
ATOM     21  C   UNL     1     -28.972  12.079   5.713  1.00  0.00    +0.027 A 
ATOM     22  C   UNL     1     -26.542  12.000   5.422  1.00  0.00    +0.001 A 
ATOM     23  C   UNL     1     -27.776  12.670   5.289  1.00  0.00    +0.002 A 
ATOM     24  H   UNL     1     -30.915  10.300   6.760  1.00  0.00    +0.170 HD
ENDBRANCH   4  13
TORSDOF 4
ENDMDL
MODEL 4
REMARK VINA RESULT:    -8.201      4.725      5.855
REMARK INTER + INTRA:         -10.276
REMARK INTER:                  -9.584
REMARK INTRA:                  -0.692
REMARK UNBOUND:                -0.637
REMARK SMILES N=C(NN=C1C(=O)Nc2ccccc21)NN(O)O
REMARK SMILES IDX 15 1 2 2 1 3 3 4 16 8 17 9 18 11 4 13 5 14 6 15 14 16 7 17
REMARK SMILES IDX 8 18 9 19 13 20 10 21 12 22 11 23
REMARK H PARENT 15 5 1 6 3 7 17 10 18 12 8 24
ROOT
ATOM      1  N   UNL     1     -33.792   8.244   7.639  1.00  0.00    -0.240 N 
ATOM      2  C   UNL     1     -32.480   8.037   7.278  1.00  0.00    +0.227 C 
ATOM      3  N   UNL     1     -32.059   7.009   6.596  1.00  0.00    -0.267 NA
ATOM      4  N   UNL     1     -31.620   9.038   7.645  1.00  0.00    -0.246 N 
ATOM      5  H   UNL     1     -33.922   8.847   8.442  1.00  0.00    +0.190 HD
ATOM      6  H   UNL     1     -31.048   7.203   6.503  1.00  0.00    +0.191 HD
ATOM      7  H   UNL     1     -32.050   9.905   7.983  1.00  0.00    +0.193 HD
ENDROOT
BRANCH   1   8
ATOM      8  N   UNL     1     -34.631   7.131   7.661  1.00  0.00    +0.033 NA
BRANCH   8   9
ATOM      9  O   UNL     1     -34.033   6.046   8.413  1.00  0.00    -0.271 OA
ATOM     10  H   UNL     1     -34.595   5.309   8.082  1.00  0.00    +0.243 HD
ENDBRANCH   8   9
BRANCH   8  11
ATOM     11  O   UNL     1     -34.824   6.648   6.313  1.00  0.00    -0.271 OA
ATOM     12  H   UNL     1     -33.963   6.897   5.937  1.00  0.00    +0.243 HD
ENDBRANCH   8  11
ENDBRANCH   1   8
BRANCH   4  13
ATOM     13  N   UNL     1     -30.283   9.034   7.338  1.00  0.00    -0.167 NA
ATOM     14  C   UNL     1     -29.821  10.117   6.796  1.00  0.00    +0.158 C 
ATOM     15  C   UNL     1     -30.578  11.402   6.445  1.00  0.00    +0.276 C 
ATOM     16  C   UNL     1     -28.439  10.346   6.391  1.00  0.00    +0.031 A 
ATOM     17  O   UNL     1     -31.764  11.577   6.634  1.00  0.00    -0.267 OA
ATOM     18  N   UNL     1     -29.640  12.248   5.896  1.00  0.00    -0.320 N 
ATOM     19  C   UNL     1     -28.390  11.635   5.860  1.00  0.00    +0.051 A 
ATOM     20  C   UNL     1     -27.329   9.531   6.468  1.00  0.00    +0.013 A 
ATOM     21  C   UNL     1     -27.212  12.166   5.380  1.00  0.00    +0.027 A 
ATOM     22  C   UNL     1     -26.127  10.055   5.986  1.00  0.00    +0.001 A 
ATOM     23  C   UNL     1     -26.070  11.358   5.447  1.00  0.00    +0.002 A 
ATOM     24  H   UNL     1     -29.854  13.177   5.565  1.00  0.00    +0.170 HD
ENDBRANCH   4  13
TORSDOF 4
ENDMDL
MODEL 5
REMARK VINA RESULT:    -7.977      4.264      5.315
REMARK INTER + INTRA:         -10.013
REMARK INTER:                  -9.348
REMARK INTRA:                  -0.666
REMARK UNBOUND:                -0.637
REMARK SMILES N=C(NN=C1C(=O)Nc2ccccc21)NN(O)O
REMARK SMILES IDX 15 1 2 2 1 3 3 4 16 8 17 9 18 11 4 13 5 14 6 15 14 16 7 17
REMARK SMILES IDX 8 18 9 19 13 20 10 21 12 22 11 23
REMARK H PARENT 15 5 1 6 3 7 17 10 18 12 8 24
ROOT
ATOM      1  N   UNL     1     -32.826   6.891   8.066  1.00  0.00    -0.240 N 
ATOM      2  C   UNL     1     -32.277   7.894   7.300  1.00  0.00    +0.227 C 
ATOM      3  N   UNL     1     -32.883   8.470   6.300  1.00  0.00    -0.267 NA
ATOM      4  N   UNL     1     -31.031   8.302   7.698  1.00  0.00    -0.246 N 
ATOM      5  H   UNL     1     -32.154   6.302   8.542  1.00  0.00    +0.190 HD
ATOM      6  H   UNL     1     -32.186   9.167   5.989  1.00  0.00    +0.191 HD
ATOM      7  H   UNL     1     -30.712   7.960   8.610  1.00  0.00    +0.193 HD
ENDROOT
BRANCH   1   8
ATOM      8  N   UNL     1     -33.878   6.165   7.509  1.00  0.00    +0.033 NA
BRANCH   8   9
ATOM      9  O   UNL     1     -33.563   5.754   6.155  1.00  0.00    -0.271 OA
ATOM     10  H   UNL     1     -34.201   6.329   5.674  1.00  0.00    +0.243 HD
ENDBRANCH   8   9
BRANCH   8  11
ATOM     11  O   UNL     1     -35.051   7.004   7.428  1.00  0.00    -0.271 OA
ATOM     12  H   UNL     1     -34.696   7.707   6.858  1.00  0.00    +0.243 HD
ENDBRANCH   8  11
ENDBRANCH   1   8
BRANCH   4  13
ATOM     13  N   UNL     1     -30.339   9.317   7.087  1.00  0.00    -0.167 NA
ATOM     14  C   UNL     1     -29.051   9.184   7.050  1.00  0.00    +0.158 C 
ATOM     15  C   UNL     1     -28.197   8.040   7.608  1.00  0.00    +0.276 C 
ATOM     16  C   UNL     1     -28.112  10.126   6.451  1.00  0.00    +0.031 A 
ATOM     17  O   UNL     1     -28.638   7.070   8.188  1.00  0.00    -0.267 OA
ATOM     18  N   UNL     1     -26.893   8.370   7.309  1.00  0.00    -0.320 N 
ATOM     19  C   UNL     1     -26.839   9.588   6.636  1.00  0.00    +0.051 A 
ATOM     20  C   UNL     1     -28.326  11.328   5.809  1.00  0.00    +0.013 A 
ATOM     21  C   UNL     1     -25.713  10.241   6.179  1.00  0.00    +0.027 A 
ATOM     22  C   UNL     1     -27.195  12.002   5.340  1.00  0.00    +0.001 A 
ATOM     23  C   UNL     1     -25.904  11.464   5.524  1.00  0.00    +0.002 A 
ATOM     24  H   UNL     1     -26.102   7.796   7.561  1.00  0.00    +0.170 HD
ENDBRANCH   4  13
TORSDOF 4
ENDMDL
MODEL 6
REMARK VINA RESULT:    -7.423      8.221      9.994
REMARK INTER + INTRA:          -9.362
REMARK INTER:                  -8.842
REMARK INTRA:                  -0.520
REMARK UNBOUND:                -0.637
REMARK SMILES N=C(NN=C1C(=O)Nc2ccccc21)NN(O)O
REMARK SMILES IDX 15 1 2 2 1 3 3 4 16 8 17 9 18 11 4 13 5 14 6 15 14 16 7 17
REMARK SMILES IDX 8 18 9 19 13 20 10 21 12 22 11 23
REMARK H PARENT 15 5 1 6 3 7 17 10 18 12 8 24
ROOT
ATOM      1  N   UNL     1     -31.880   7.865   6.643  1.00  0.00    -0.240 N 
ATOM      2  C   UNL     1     -33.119   7.928   7.238  1.00  0.00    +0.227 C 
ATOM      3  N   UNL     1     -33.632   9.010   7.755  1.00  0.00    -0.267 NA
ATOM      4  N   UNL     1     -33.830   6.757   7.208  1.00  0.00    -0.246 N 
ATOM      5  H   UNL     1     -31.465   6.942   6.621  1.00  0.00    +0.190 HD
ATOM      6  H   UNL     1     -34.556   8.683   8.082  1.00  0.00    +0.191 HD
ATOM      7  H   UNL     1     -33.460   6.018   6.603  1.00  0.00    +0.193 HD
ENDROOT
BRANCH   1   8
ATOM      8  N   UNL     1     -30.961   8.861   6.973  1.00  0.00    +0.033 NA
BRANCH   8   9
ATOM      9  O   UNL     1     -31.266  10.097   6.281  1.00  0.00    -0.271 OA
ATOM     10  H   UNL     1     -31.863  10.499   6.954  1.00  0.00    +0.243 HD
ENDBRANCH   8   9
BRANCH   8  11
ATOM     11  O   UNL     1     -29.642   8.457   6.545  1.00  0.00    -0.271 OA
ATOM     12  H   UNL     1     -29.782   7.496   6.505  1.00  0.00    +0.243 HD
ENDBRANCH   8  11
ENDBRANCH   1   8
BRANCH   4  13
ATOM     13  N   UNL     1     -35.100   6.633   7.712  1.00  0.00    -0.167 NA
ATOM     14  C   UNL     1     -35.273   5.693   8.587  1.00  0.00    +0.158 C 
ATOM     15  C   UNL     1     -34.244   4.695   9.128  1.00  0.00    +0.276 C 
ATOM     16  C   UNL     1     -36.527   5.377   9.262  1.00  0.00    +0.031 A 
ATOM     17  O   UNL     1     -33.081   4.652   8.786  1.00  0.00    -0.267 OA
ATOM     18  N   UNL     1     -34.925   3.913  10.034  1.00  0.00    -0.320 N 
ATOM     19  C   UNL     1     -36.259   4.305  10.114  1.00  0.00    +0.051 A 
ATOM     20  C   UNL     1     -37.778   5.949   9.158  1.00  0.00    +0.013 A 
ATOM     21  C   UNL     1     -37.246   3.757  10.906  1.00  0.00    +0.027 A 
ATOM     22  C   UNL     1     -38.788   5.405   9.956  1.00  0.00    +0.001 A 
ATOM     23  C   UNL     1     -38.525   4.321  10.819  1.00  0.00    +0.002 A 
ATOM     24  H   UNL     1     -34.498   3.159  10.551  1.00  0.00    +0.170 HD
ENDBRANCH   4  13
TORSDOF 4
ENDMDL
MODEL 7
REMARK VINA RESULT:    -7.400      9.402     11.302
REMARK INTER + INTRA:          -9.335
REMARK INTER:                  -8.667
REMARK INTRA:                  -0.668
REMARK UNBOUND:                -0.637
REMARK SMILES N=C(NN=C1C(=O)Nc2ccccc21)NN(O)O
REMARK SMILES IDX 15 1 2 2 1 3 3 4 16 8 17 9 18 11 4 13 5 14 6 15 14 16 7 17
REMARK SMILES IDX 8 18 9 19 13 20 10 21 12 22 11 23
REMARK H PARENT 15 5 1 6 3 7 17 10 18 12 8 24
ROOT
ATOM      1  N   UNL     1     -32.579   6.361   7.457  1.00  0.00    -0.240 N 
ATOM      2  C   UNL     1     -33.845   6.244   7.985  1.00  0.00    +0.227 C 
ATOM      3  N   UNL     1     -34.856   6.991   7.641  1.00  0.00    -0.267 NA
ATOM      4  N   UNL     1     -33.998   5.224   8.887  1.00  0.00    -0.246 N 
ATOM      5  H   UNL     1     -31.838   5.998   8.044  1.00  0.00    +0.190 HD
ATOM      6  H   UNL     1     -35.623   6.607   8.219  1.00  0.00    +0.191 HD
ATOM      7  H   UNL     1     -33.227   4.552   8.946  1.00  0.00    +0.193 HD
ENDROOT
BRANCH   1   8
ATOM      8  N   UNL     1     -32.246   7.577   6.861  1.00  0.00    +0.033 NA
BRANCH   8   9
ATOM      9  O   UNL     1     -32.626   8.690   7.708  1.00  0.00    -0.271 OA
ATOM     10  H   UNL     1     -32.139   8.428   8.523  1.00  0.00    +0.243 HD
ENDBRANCH   8   9
BRANCH   8  11
ATOM     11  O   UNL     1     -32.981   7.723   5.626  1.00  0.00    -0.271 OA
ATOM     12  H   UNL     1     -33.885   7.678   5.980  1.00  0.00    +0.243 HD
ENDBRANCH   8  11
ENDBRANCH   1   8
BRANCH   4  13
ATOM     13  N   UNL     1     -35.193   4.922   9.488  1.00  0.00    -0.167 NA
ATOM     14  C   UNL     1     -35.426   3.663   9.687  1.00  0.00    +0.158 C 
ATOM     15  C   UNL     1     -34.542   2.464   9.331  1.00  0.00    +0.276 C 
ATOM     16  C   UNL     1     -36.620   3.104  10.312  1.00  0.00    +0.031 A 
ATOM     17  O   UNL     1     -33.461   2.543   8.785  1.00  0.00    -0.267 OA
ATOM     18  N   UNL     1     -35.236   1.351   9.751  1.00  0.00    -0.320 N 
ATOM     19  C   UNL     1     -36.451   1.720  10.323  1.00  0.00    +0.051 A 
ATOM     20  C   UNL     1     -37.744   3.720  10.822  1.00  0.00    +0.013 A 
ATOM     21  C   UNL     1     -37.413   0.886  10.852  1.00  0.00    +0.027 A 
ATOM     22  C   UNL     1     -38.728   2.888  11.363  1.00  0.00    +0.001 A 
ATOM     23  C   UNL     1     -38.564   1.487  11.377  1.00  0.00    +0.002 A 
ATOM     24  H   UNL     1     -34.894   0.408   9.643  1.00  0.00    +0.170 HD
ENDBRANCH   4  13
TORSDOF 4
ENDMDL
MODEL 8
REMARK VINA RESULT:    -7.341      9.054      9.931
REMARK INTER + INTRA:          -9.265
REMARK INTER:                  -8.572
REMARK INTRA:                  -0.693
REMARK UNBOUND:                -0.637
REMARK SMILES N=C(NN=C1C(=O)Nc2ccccc21)NN(O)O
REMARK SMILES IDX 15 1 2 2 1 3 3 4 16 8 17 9 18 11 4 13 5 14 6 15 14 16 7 17
REMARK SMILES IDX 8 18 9 19 13 20 10 21 12 22 11 23
REMARK H PARENT 15 5 1 6 3 7 17 10 18 12 8 24
ROOT
ATOM      1  N   UNL     1     -23.814   0.222  10.607  1.00  0.00    -0.240 N 
ATOM      2  C   UNL     1     -25.077   0.253  10.063  1.00  0.00    +0.227 C 
ATOM      3  N   UNL     1     -25.386   0.872   8.958  1.00  0.00    -0.267 NA
ATOM      4  N   UNL     1     -26.015  -0.476  10.747  1.00  0.00    -0.246 N 
ATOM      5  H   UNL     1     -23.784   0.039  11.603  1.00  0.00    +0.190 HD
ATOM      6  H   UNL     1     -26.394   0.662   8.859  1.00  0.00    +0.191 HD
ATOM      7  H   UNL     1     -25.658  -1.103  11.474  1.00  0.00    +0.193 HD
ENDROOT
BRANCH   1   8
ATOM      8  N   UNL     1     -22.926   1.224  10.218  1.00  0.00    +0.033 NA
BRANCH   8   9
ATOM      9  O   UNL     1     -23.533   2.534  10.351  1.00  0.00    -0.271 OA
ATOM     10  H   UNL     1     -22.907   3.045   9.788  1.00  0.00    +0.243 HD
ENDBRANCH   8   9
BRANCH   8  11
ATOM     11  O   UNL     1     -22.596   1.058   8.822  1.00  0.00    -0.271 OA
ATOM     12  H   UNL     1     -22.784   0.108   8.733  1.00  0.00    +0.243 HD
ENDBRANCH   8  11
ENDBRANCH   1   8
BRANCH   4  13
ATOM     13  N   UNL     1     -27.318  -0.602  10.338  1.00  0.00    -0.167 NA
ATOM     14  C   UNL     1     -28.208  -0.047  11.099  1.00  0.00    +0.158 C 
ATOM     15  C   UNL     1     -27.994   0.728  12.403  1.00  0.00    +0.276 C 
ATOM     16  C   UNL     1     -29.648  -0.044  10.865  1.00  0.00    +0.031 A 
ATOM     17  O   UNL     1     -26.913   0.925  12.918  1.00  0.00    -0.267 OA
ATOM     18  N   UNL     1     -29.250   1.112  12.817  1.00  0.00    -0.320 N 
ATOM     19  C   UNL     1     -30.219   0.662  11.924  1.00  0.00    +0.051 A 
ATOM     20  C   UNL     1     -30.398  -0.593   9.847  1.00  0.00    +0.013 A 
ATOM     21  C   UNL     1     -31.583   0.850  12.005  1.00  0.00    +0.027 A 
ATOM     22  C   UNL     1     -31.782  -0.411   9.914  1.00  0.00    +0.001 A 
ATOM     23  C   UNL     1     -32.367   0.302  10.982  1.00  0.00    +0.002 A 
ATOM     24  H   UNL     1     -29.421   1.641  13.659  1.00  0.00    +0.170 HD
ENDBRANCH   4  13
TORSDOF 4
ENDMDL
MODEL 9
REMARK VINA RESULT:    -7.313      7.200      9.616
REMARK INTER + INTRA:          -9.233
REMARK INTER:                  -8.533
REMARK INTRA:                  -0.700
REMARK UNBOUND:                -0.637
REMARK SMILES N=C(NN=C1C(=O)Nc2ccccc21)NN(O)O
REMARK SMILES IDX 15 1 2 2 1 3 3 4 16 8 17 9 18 11 4 13 5 14 6 15 14 16 7 17
REMARK SMILES IDX 8 18 9 19 13 20 10 21 12 22 11 23
REMARK H PARENT 15 5 1 6 3 7 17 10 18 12 8 24
ROOT
ATOM      1  N   UNL     1     -30.177  -0.579  14.991  1.00  0.00    -0.240 N 
ATOM      2  C   UNL     1     -28.991   0.039  14.667  1.00  0.00    +0.227 C 
ATOM      3  N   UNL     1     -27.813  -0.416  14.991  1.00  0.00    -0.267 NA
ATOM      4  N   UNL     1     -29.123   1.173  13.910  1.00  0.00    -0.246 N 
ATOM      5  H   UNL     1     -30.984   0.032  15.010  1.00  0.00    +0.190 HD
ATOM      6  H   UNL     1     -27.180   0.285  14.571  1.00  0.00    +0.191 HD
ATOM      7  H   UNL     1     -30.052   1.349  13.515  1.00  0.00    +0.193 HD
ENDROOT
BRANCH   1   8
ATOM      8  N   UNL     1     -30.159  -1.478  16.057  1.00  0.00    +0.033 NA
BRANCH   8   9
ATOM      9  O   UNL     1     -29.485  -0.905  17.205  1.00  0.00    -0.271 OA
ATOM     10  H   UNL     1     -30.206  -0.311  17.518  1.00  0.00    +0.243 HD
ENDBRANCH   8   9
BRANCH   8  11
ATOM     11  O   UNL     1     -29.412  -2.655  15.680  1.00  0.00    -0.271 OA
ATOM     12  H   UNL     1     -28.851  -2.265  14.988  1.00  0.00    +0.243 HD
ENDBRANCH   8  11
ENDBRANCH   1   8
BRANCH   4  13
ATOM     13  N   UNL     1     -28.056   1.903  13.453  1.00  0.00    -0.167 NA
ATOM     14  C   UNL     1     -28.040   2.150  12.181  1.00  0.00    +0.158 C 
ATOM     15  C   UNL     1     -29.057   1.725  11.117  1.00  0.00    +0.276 C 
ATOM     16  C   UNL     1     -27.015   2.908  11.471  1.00  0.00    +0.031 A 
ATOM     17  O   UNL     1     -30.051   1.066  11.339  1.00  0.00    -0.267 OA
ATOM     18  N   UNL     1     -28.587   2.238   9.928  1.00  0.00    -0.320 N 
ATOM     19  C   UNL     1     -27.395   2.928  10.129  1.00  0.00    +0.051 A 
ATOM     20  C   UNL     1     -25.868   3.522  11.928  1.00  0.00    +0.013 A 
ATOM     21  C   UNL     1     -26.631   3.572   9.179  1.00  0.00    +0.027 A 
ATOM     22  C   UNL     1     -25.083   4.181  10.978  1.00  0.00    +0.001 A 
ATOM     23  C   UNL     1     -25.461   4.204   9.619  1.00  0.00    +0.002 A 
ATOM     24  H   UNL     1     -29.057   2.112   9.043  1.00  0.00    +0.170 HD
ENDBRANCH   4  13
TORSDOF 4
ENDMDL
