MODEL 1
REMARK VINA RESULT:    -7.972      0.000      0.000
REMARK INTER + INTRA:          -8.551
REMARK INTER:                  -8.438
REMARK INTRA:                  -0.112
REMARK UNBOUND:                -0.112
REMARK SMILES O=C1c2ccccc2C(=O)N1[N+](=O)[O-]
REMARK SMILES IDX 14 1 12 2 13 3 11 4 2 5 9 6 1 7 3 8 8 9 10 10 4 11 7 12 5 13
REMARK SMILES IDX 6 14
REMARK H PARENT
ROOT
ATOM      1  O   UNL     1     -25.901   6.682   6.558  1.00  0.00    -0.234 OA
ATOM      2  N   UNL     1     -25.661   7.779   7.061  1.00  0.00    +0.176 N 
ATOM      3  O   UNL     1     -24.676   8.088   7.732  1.00  0.00    -0.234 OA
ENDROOT
BRANCH   2   4
ATOM      4  N   UNL     1     -26.605   8.777   6.851  1.00  0.00    +0.018 N 
ATOM      5  C   UNL     1     -26.360   9.897   6.111  1.00  0.00    +0.324 C 
ATOM      6  C   UNL     1     -27.867   8.735   7.365  1.00  0.00    +0.324 C 
ATOM      7  O   UNL     1     -25.387  10.300   5.502  1.00  0.00    -0.262 OA
ATOM      8  C   UNL     1     -27.602  10.668   6.148  1.00  0.00    +0.059 A 
ATOM      9  C   UNL     1     -28.516   9.964   6.908  1.00  0.00    +0.059 A 
ATOM     10  O   UNL     1     -28.461   7.932   8.058  1.00  0.00    -0.262 OA
ATOM     11  C   UNL     1     -27.914  11.883   5.568  1.00  0.00    +0.015 A 
ATOM     12  C   UNL     1     -29.796  10.435   7.133  1.00  0.00    +0.015 A 
ATOM     13  C   UNL     1     -29.204  12.380   5.781  1.00  0.00    +0.001 A 
ATOM     14  C   UNL     1     -30.137  11.662   6.557  1.00  0.00    +0.001 A 
ENDBRANCH   2   4
TORSDOF 1
ENDMDL
MODEL 2
REMARK VINA RESULT:    -7.952      0.062      2.497
REMARK INTER + INTRA:          -8.529
REMARK INTER:                  -8.430
REMARK INTRA:                  -0.100
REMARK UNBOUND:                -0.112
REMARK SMILES O=C1c2ccccc2C(=O)N1[N+](=O)[O-]
REMARK SMILES IDX 14 1 12 2 13 3 11 4 2 5 9 6 1 7 3 8 8 9 10 10 4 11 7 12 5 13
REMARK SMILES IDX 6 14
REMARK H PARENT
ROOT
ATOM      1  O   UNL     1     -24.646   8.038   7.695  1.00  0.00    -0.234 OA
ATOM      2  N   UNL     1     -25.644   7.724   7.046  1.00  0.00    +0.176 N 
ATOM      3  O   UNL     1     -25.893   6.624   6.555  1.00  0.00    -0.234 OA
ENDROOT
BRANCH   2   4
ATOM      4  N   UNL     1     -26.591   8.721   6.846  1.00  0.00    +0.018 N 
ATOM      5  C   UNL     1     -27.853   8.670   7.362  1.00  0.00    +0.324 C 
ATOM      6  C   UNL     1     -26.351   9.846   6.114  1.00  0.00    +0.324 C 
ATOM      7  O   UNL     1     -28.443   7.860   8.050  1.00  0.00    -0.262 OA
ATOM      8  C   UNL     1     -28.507   9.901   6.915  1.00  0.00    +0.059 A 
ATOM      9  C   UNL     1     -27.597  10.613   6.158  1.00  0.00    +0.059 A 
ATOM     10  O   UNL     1     -25.382  10.257   5.505  1.00  0.00    -0.262 OA
ATOM     11  C   UNL     1     -29.788  10.364   7.146  1.00  0.00    +0.015 A 
ATOM     12  C   UNL     1     -27.915  11.832   5.588  1.00  0.00    +0.015 A 
ATOM     13  C   UNL     1     -30.134  11.595   6.581  1.00  0.00    +0.001 A 
ATOM     14  C   UNL     1     -29.206  12.323   5.808  1.00  0.00    +0.001 A 
ENDBRANCH   2   4
TORSDOF 1
ENDMDL
MODEL 3
REMARK VINA RESULT:    -7.230      1.418      2.989
REMARK INTER + INTRA:          -7.765
REMARK INTER:                  -7.667
REMARK INTRA:                  -0.098
REMARK UNBOUND:                -0.112
REMARK SMILES O=C1c2ccccc2C(=O)N1[N+](=O)[O-]
REMARK SMILES IDX 14 1 12 2 13 3 11 4 2 5 9 6 1 7 3 8 8 9 10 10 4 11 7 12 5 13
REMARK SMILES IDX 6 14
REMARK H PARENT
ROOT
ATOM      1  O   UNL     1     -25.188   5.158   6.983  1.00  0.00    -0.234 OA
ATOM      2  N   UNL     1     -25.527   5.941   7.871  1.00  0.00    +0.176 N 
ATOM      3  O   UNL     1     -25.367   5.801   9.083  1.00  0.00    -0.234 OA
ENDROOT
BRANCH   2   4
ATOM      4  N   UNL     1     -26.160   7.108   7.460  1.00  0.00    +0.018 N 
ATOM      5  C   UNL     1     -27.457   7.404   7.764  1.00  0.00    +0.324 C 
ATOM      6  C   UNL     1     -25.547   8.069   6.712  1.00  0.00    +0.324 C 
ATOM      7  O   UNL     1     -28.321   6.825   8.393  1.00  0.00    -0.262 OA
ATOM      8  C   UNL     1     -27.715   8.704   7.144  1.00  0.00    +0.059 A 
ATOM      9  C   UNL     1     -26.558   9.107   6.506  1.00  0.00    +0.059 A 
ATOM     10  O   UNL     1     -24.429   8.181   6.247  1.00  0.00    -0.262 OA
ATOM     11  C   UNL     1     -28.862   9.474   7.135  1.00  0.00    +0.015 A 
ATOM     12  C   UNL     1     -26.481  10.305   5.821  1.00  0.00    +0.015 A 
ATOM     13  C   UNL     1     -28.809  10.692   6.448  1.00  0.00    +0.001 A 
ATOM     14  C   UNL     1     -27.628  11.103   5.797  1.00  0.00    +0.001 A 
ENDBRANCH   2   4
TORSDOF 1
ENDMDL
MODEL 4
REMARK VINA RESULT:    -6.877      1.762      2.513
REMARK INTER + INTRA:          -7.391
REMARK INTER:                  -7.677
REMARK INTRA:                   0.286
REMARK UNBOUND:                -0.112
REMARK SMILES O=C1c2ccccc2C(=O)N1[N+](=O)[O-]
REMARK SMILES IDX 14 1 12 2 13 3 11 4 2 5 9 6 1 7 3 8 8 9 10 10 4 11 7 12 5 13
REMARK SMILES IDX 6 14
REMARK H PARENT
ROOT
ATOM      1  O   UNL     1     -26.527   5.123   9.549  1.00  0.00    -0.234 OA
ATOM      2  N   UNL     1     -26.117   5.418   8.426  1.00  0.00    +0.176 N 
ATOM      3  O   UNL     1     -25.352   4.761   7.721  1.00  0.00    -0.234 OA
ENDROOT
BRANCH   2   4
ATOM      4  N   UNL     1     -26.565   6.623   7.900  1.00  0.00    +0.018 N 
ATOM      5  C   UNL     1     -25.768   7.473   7.190  1.00  0.00    +0.324 C 
ATOM      6  C   UNL     1     -27.844   7.074   8.043  1.00  0.00    +0.324 C 
ATOM      7  O   UNL     1     -24.601   7.438   6.853  1.00  0.00    -0.262 OA
ATOM      8  C   UNL     1     -26.626   8.603   6.831  1.00  0.00    +0.059 A 
ATOM      9  C   UNL     1     -27.884   8.362   7.349  1.00  0.00    +0.059 A 
ATOM     10  O   UNL     1     -28.833   6.626   8.592  1.00  0.00    -0.262 OA
ATOM     11  C   UNL     1     -26.337   9.748   6.114  1.00  0.00    +0.015 A 
ATOM     12  C   UNL     1     -28.927   9.252   7.179  1.00  0.00    +0.015 A 
ATOM     13  C   UNL     1     -27.377  10.665   5.928  1.00  0.00    +0.001 A 
ATOM     14  C   UNL     1     -28.661  10.419   6.456  1.00  0.00    +0.001 A 
ENDBRANCH   2   4
TORSDOF 1
ENDMDL
MODEL 5
REMARK VINA RESULT:    -6.462      7.957      9.259
REMARK INTER + INTRA:          -6.951
REMARK INTER:                  -6.806
REMARK INTRA:                  -0.146
REMARK UNBOUND:                -0.112
REMARK SMILES O=C1c2ccccc2C(=O)N1[N+](=O)[O-]
REMARK SMILES IDX 14 1 12 2 13 3 11 4 2 5 9 6 1 7 3 8 8 9 10 10 4 11 7 12 5 13
REMARK SMILES IDX 6 14
REMARK H PARENT
ROOT
ATOM      1  O   UNL     1     -25.277   4.288   8.837  1.00  0.00    -0.234 OA
ATOM      2  N   UNL     1     -24.998   3.628   9.838  1.00  0.00    +0.176 N 
ATOM      3  O   UNL     1     -23.926   3.618  10.444  1.00  0.00    -0.234 OA
ENDROOT
BRANCH   2   4
ATOM      4  N   UNL     1     -25.999   2.804  10.337  1.00  0.00    +0.018 N 
ATOM      5  C   UNL     1     -26.432   1.679   9.697  1.00  0.00    +0.324 C 
ATOM      6  C   UNL     1     -26.648   3.041  11.512  1.00  0.00    +0.324 C 
ATOM      7  O   UNL     1     -26.118   1.138   8.655  1.00  0.00    -0.262 OA
ATOM      8  C   UNL     1     -27.479   1.122  10.554  1.00  0.00    +0.059 A 
ATOM      9  C   UNL     1     -27.610   1.948  11.654  1.00  0.00    +0.059 A 
ATOM     10  O   UNL     1     -26.560   3.913  12.355  1.00  0.00    -0.262 OA
ATOM     11  C   UNL     1     -28.255  -0.009  10.392  1.00  0.00    +0.015 A 
ATOM     12  C   UNL     1     -28.527   1.689  12.656  1.00  0.00    +0.015 A 
ATOM     13  C   UNL     1     -29.189  -0.293  11.393  1.00  0.00    +0.001 A 
ATOM     14  C   UNL     1     -29.324   0.549  12.515  1.00  0.00    +0.001 A 
ENDBRANCH   2   4
TORSDOF 1
ENDMDL
MODEL 6
REMARK VINA RESULT:    -6.455      6.263      7.749
REMARK INTER + INTRA:          -6.945
REMARK INTER:                  -6.745
REMARK INTRA:                  -0.200
REMARK UNBOUND:                -0.112
REMARK SMILES O=C1c2ccccc2C(=O)N1[N+](=O)[O-]
REMARK SMILES IDX 14 1 12 2 13 3 11 4 2 5 9 6 1 7 3 8 8 9 10 10 4 11 7 12 5 13
REMARK SMILES IDX 6 14
REMARK H PARENT
ROOT
ATOM      1  O   UNL     1     -32.916   3.147  10.104  1.00  0.00    -0.234 OA
ATOM      2  N   UNL     1     -33.499   4.229  10.038  1.00  0.00    +0.176 N 
ATOM      3  O   UNL     1     -34.233   4.728  10.891  1.00  0.00    -0.234 OA
ENDROOT
BRANCH   2   4
ATOM      4  N   UNL     1     -33.311   4.965   8.875  1.00  0.00    +0.018 N 
ATOM      5  C   UNL     1     -34.143   4.887   7.796  1.00  0.00    +0.324 C 
ATOM      6  C   UNL     1     -32.276   5.835   8.698  1.00  0.00    +0.324 C 
ATOM      7  O   UNL     1     -35.150   4.248   7.562  1.00  0.00    -0.262 OA
ATOM      8  C   UNL     1     -33.586   5.811   6.807  1.00  0.00    +0.059 A 
ATOM      9  C   UNL     1     -32.454   6.384   7.354  1.00  0.00    +0.059 A 
ATOM     10  O   UNL     1     -31.344   6.179   9.398  1.00  0.00    -0.262 OA
ATOM     11  C   UNL     1     -34.026   6.127   5.536  1.00  0.00    +0.015 A 
ATOM     12  C   UNL     1     -31.696   7.309   6.660  1.00  0.00    +0.015 A 
ATOM     13  C   UNL     1     -33.276   7.061   4.814  1.00  0.00    +0.001 A 
ATOM     14  C   UNL     1     -32.121   7.646   5.371  1.00  0.00    +0.001 A 
ENDBRANCH   2   4
TORSDOF 1
ENDMDL
MODEL 7
REMARK VINA RESULT:    -6.452      6.370      7.676
REMARK INTER + INTRA:          -6.941
REMARK INTER:                  -6.741
REMARK INTRA:                  -0.200
REMARK UNBOUND:                -0.112
REMARK SMILES O=C1c2ccccc2C(=O)N1[N+](=O)[O-]
REMARK SMILES IDX 14 1 12 2 13 3 11 4 2 5 9 6 1 7 3 8 8 9 10 10 4 11 7 12 5 13
REMARK SMILES IDX 6 14
REMARK H PARENT
ROOT
ATOM      1  O   UNL     1     -34.190   4.666  10.975  1.00  0.00    -0.234 OA
ATOM      2  N   UNL     1     -33.541   4.122  10.081  1.00  0.00    +0.176 N 
ATOM      3  O   UNL     1     -33.033   3.001  10.111  1.00  0.00    -0.234 OA
ENDROOT
BRANCH   2   4
ATOM      4  N   UNL     1     -33.360   4.854   8.915  1.00  0.00    +0.018 N 
ATOM      5  C   UNL     1     -32.327   5.727   8.730  1.00  0.00    +0.324 C 
ATOM      6  C   UNL     1     -34.196   4.772   7.841  1.00  0.00    +0.324 C 
ATOM      7  O   UNL     1     -31.394   6.077   9.426  1.00  0.00    -0.262 OA
ATOM      8  C   UNL     1     -32.514   6.274   7.385  1.00  0.00    +0.059 A 
ATOM      9  C   UNL     1     -33.647   5.695   6.847  1.00  0.00    +0.059 A 
ATOM     10  O   UNL     1     -35.203   4.129   7.612  1.00  0.00    -0.262 OA
ATOM     11  C   UNL     1     -31.763   7.198   6.686  1.00  0.00    +0.015 A 
ATOM     12  C   UNL     1     -34.094   6.007   5.576  1.00  0.00    +0.015 A 
ATOM     13  C   UNL     1     -32.194   7.531   5.398  1.00  0.00    +0.001 A 
ATOM     14  C   UNL     1     -33.350   6.940   4.848  1.00  0.00    +0.001 A 
ENDBRANCH   2   4
TORSDOF 1
ENDMDL
MODEL 8
REMARK VINA RESULT:    -6.403      7.971      9.293
REMARK INTER + INTRA:          -6.889
REMARK INTER:                  -6.738
REMARK INTRA:                  -0.152
REMARK UNBOUND:                -0.112
REMARK SMILES O=C1c2ccccc2C(=O)N1[N+](=O)[O-]
REMARK SMILES IDX 14 1 12 2 13 3 11 4 2 5 9 6 1 7 3 8 8 9 10 10 4 11 7 12 5 13
REMARK SMILES IDX 6 14
REMARK H PARENT
ROOT
ATOM      1  O   UNL     1     -25.248   4.295   8.900  1.00  0.00    -0.234 OA
ATOM      2  N   UNL     1     -24.977   3.610   9.887  1.00  0.00    +0.176 N 
ATOM      3  O   UNL     1     -23.896   3.548  10.472  1.00  0.00    -0.234 OA
ENDROOT
BRANCH   2   4
ATOM      4  N   UNL     1     -26.002   2.821  10.393  1.00  0.00    +0.018 N 
ATOM      5  C   UNL     1     -26.631   3.077  11.576  1.00  0.00    +0.324 C 
ATOM      6  C   UNL     1     -26.479   1.713   9.757  1.00  0.00    +0.324 C 
ATOM      7  O   UNL     1     -26.504   3.944  12.420  1.00  0.00    -0.262 OA
ATOM      8  C   UNL     1     -27.628   2.017  11.726  1.00  0.00    +0.059 A 
ATOM      9  C   UNL     1     -27.536   1.190  10.623  1.00  0.00    +0.059 A 
ATOM     10  O   UNL     1     -26.195   1.162   8.710  1.00  0.00    -0.262 OA
ATOM     11  C   UNL     1     -28.542   1.788  12.737  1.00  0.00    +0.015 A 
ATOM     12  C   UNL     1     -28.352   0.085  10.467  1.00  0.00    +0.015 A 
ATOM     13  C   UNL     1     -29.380   0.677  12.602  1.00  0.00    +0.001 A 
ATOM     14  C   UNL     1     -29.286  -0.168  11.477  1.00  0.00    +0.001 A 
ENDBRANCH   2   4
TORSDOF 1
ENDMDL
MODEL 9
REMARK VINA RESULT:    -6.291      9.939     10.683
REMARK INTER + INTRA:          -6.771
REMARK INTER:                  -6.595
REMARK INTRA:                  -0.176
REMARK UNBOUND:                -0.112
REMARK SMILES O=C1c2ccccc2C(=O)N1[N+](=O)[O-]
REMARK SMILES IDX 14 1 12 2 13 3 11 4 2 5 9 6 1 7 3 8 8 9 10 10 4 11 7 12 5 13
REMARK SMILES IDX 6 14
REMARK H PARENT
ROOT
ATOM      1  O   UNL     1     -26.159  -0.804   9.190  1.00  0.00    -0.234 OA
ATOM      2  N   UNL     1     -26.564   0.331   9.446  1.00  0.00    +0.176 N 
ATOM      3  O   UNL     1     -26.300   1.367   8.836  1.00  0.00    -0.234 OA
ENDROOT
BRANCH   2   4
ATOM      4  N   UNL     1     -27.408   0.455  10.542  1.00  0.00    +0.018 N 
ATOM      5  C   UNL     1     -27.011   0.981  11.737  1.00  0.00    +0.324 C 
ATOM      6  C   UNL     1     -28.713   0.062  10.531  1.00  0.00    +0.324 C 
ATOM      7  O   UNL     1     -25.959   1.433  12.143  1.00  0.00    -0.262 OA
ATOM      8  C   UNL     1     -28.192   0.923  12.599  1.00  0.00    +0.059 A 
ATOM      9  C   UNL     1     -29.224   0.366  11.868  1.00  0.00    +0.059 A 
ATOM     10  O   UNL     1     -29.429  -0.440   9.686  1.00  0.00    -0.262 OA
ATOM     11  C   UNL     1     -28.358   1.322  13.912  1.00  0.00    +0.015 A 
ATOM     12  C   UNL     1     -30.482   0.175  12.408  1.00  0.00    +0.015 A 
ATOM     13  C   UNL     1     -29.623   1.140  14.481  1.00  0.00    +0.001 A 
ATOM     14  C   UNL     1     -30.675   0.571  13.735  1.00  0.00    +0.001 A 
ENDBRANCH   2   4
TORSDOF 1
ENDMDL
