MODEL 1
REMARK VINA RESULT:    -8.258      0.000      0.000
REMARK INTER + INTRA:          -9.510
REMARK INTER:                  -9.465
REMARK INTRA:                  -0.045
REMARK UNBOUND:                -0.045
REMARK SMILES CCc1nc(S)c2cnn(-c3ccccc3)c2n1
REMARK SMILES IDX 3 1 4 2 5 3 7 4 8 5 9 6 10 7 17 8 18 9 2 10 1 11 6 12 11 14
REMARK SMILES IDX 12 15 16 16 13 17 15 18 14 19
REMARK H PARENT 6 13
ROOT
ATOM      1  C   UNL     1     -29.979  10.700   6.875  1.00  0.00    +0.131 A 
ATOM      2  N   UNL     1     -29.686  11.867   6.268  1.00  0.00    -0.226 NA
ATOM      3  C   UNL     1     -28.437  12.055   5.797  1.00  0.00    +0.108 A 
ATOM      4  C   UNL     1     -27.486  11.050   5.941  1.00  0.00    +0.071 A 
ATOM      5  C   UNL     1     -26.143  10.817   5.609  1.00  0.00    +0.149 A 
ATOM      6  N   UNL     1     -25.706   9.626   6.010  1.00  0.00    -0.174 NA
ATOM      7  N   UNL     1     -26.786   9.044   6.619  1.00  0.00    -0.215 N 
ATOM      8  C   UNL     1     -27.894   9.894   6.589  1.00  0.00    +0.167 A 
ATOM      9  N   UNL     1     -29.132   9.676   7.077  1.00  0.00    -0.213 NA
ENDROOT
BRANCH   1  10
ATOM     10  C   UNL     1     -31.377  10.544   7.409  1.00  0.00    +0.074 C 
ATOM     11  C   UNL     1     -31.799   9.083   7.429  1.00  0.00    +0.012 C 
ENDBRANCH   1  10
BRANCH   3  12
ATOM     12  S   UNL     1     -28.060  13.583   5.003  1.00  0.00    -0.123 SA
ATOM     13  H   UNL     1     -29.317  13.996   4.807  1.00  0.00    +0.110 HD
ENDBRANCH   3  12
BRANCH   7  14
ATOM     14  C   UNL     1     -26.660   7.733   7.175  1.00  0.00    +0.067 A 
ATOM     15  C   UNL     1     -25.481   7.003   6.943  1.00  0.00    +0.028 A 
ATOM     16  C   UNL     1     -27.675   7.150   7.943  1.00  0.00    +0.028 A 
ATOM     17  C   UNL     1     -25.324   5.718   7.470  1.00  0.00    +0.002 A 
ATOM     18  C   UNL     1     -27.512   5.864   8.469  1.00  0.00    +0.002 A 
ATOM     19  C   UNL     1     -26.339   5.149   8.233  1.00  0.00    +0.000 A 
ENDBRANCH   7  14
TORSDOF 3
ENDMDL
MODEL 2
REMARK VINA RESULT:    -8.129      2.721      5.175
REMARK INTER + INTRA:          -9.362
REMARK INTER:                  -9.307
REMARK INTRA:                  -0.055
REMARK UNBOUND:                -0.045
REMARK SMILES CCc1nc(S)c2cnn(-c3ccccc3)c2n1
REMARK SMILES IDX 3 1 4 2 5 3 7 4 8 5 9 6 10 7 17 8 18 9 2 10 1 11 6 12 11 14
REMARK SMILES IDX 12 15 16 16 13 17 15 18 14 19
REMARK H PARENT 6 13
ROOT
ATOM      1  C   UNL     1     -29.016   6.987   8.123  1.00  0.00    +0.131 A 
ATOM      2  N   UNL     1     -28.125   6.020   8.419  1.00  0.00    -0.226 NA
ATOM      3  C   UNL     1     -26.829   6.217   8.104  1.00  0.00    +0.108 A 
ATOM      4  C   UNL     1     -26.441   7.403   7.489  1.00  0.00    +0.071 A 
ATOM      5  C   UNL     1     -25.265   8.009   7.022  1.00  0.00    +0.149 A 
ATOM      6  N   UNL     1     -25.474   9.211   6.489  1.00  0.00    -0.174 NA
ATOM      7  N   UNL     1     -26.823   9.417   6.610  1.00  0.00    -0.215 N 
ATOM      8  C   UNL     1     -27.441   8.325   7.223  1.00  0.00    +0.167 A 
ATOM      9  N   UNL     1     -28.747   8.157   7.519  1.00  0.00    -0.213 NA
ENDROOT
BRANCH   1  10
ATOM     10  C   UNL     1     -30.455   6.713   8.467  1.00  0.00    +0.074 C 
ATOM     11  C   UNL     1     -31.394   7.560   7.623  1.00  0.00    +0.012 C 
ENDBRANCH   1  10
BRANCH   3  12
ATOM     12  S   UNL     1     -25.668   4.950   8.493  1.00  0.00    -0.123 SA
ATOM     13  H   UNL     1     -25.278   5.425   9.682  1.00  0.00    +0.110 HD
ENDBRANCH   3  12
BRANCH   7  14
ATOM     14  C   UNL     1     -27.396  10.635   6.128  1.00  0.00    +0.067 A 
ATOM     15  C   UNL     1     -26.609  11.497   5.344  1.00  0.00    +0.028 A 
ATOM     16  C   UNL     1     -28.718  10.998   6.412  1.00  0.00    +0.028 A 
ATOM     17  C   UNL     1     -27.137  12.696   4.856  1.00  0.00    +0.002 A 
ATOM     18  C   UNL     1     -29.241  12.199   5.921  1.00  0.00    +0.002 A 
ATOM     19  C   UNL     1     -28.453  13.046   5.145  1.00  0.00    +0.000 A 
ENDBRANCH   7  14
TORSDOF 3
ENDMDL
MODEL 3
REMARK VINA RESULT:    -8.097      2.751      5.907
REMARK INTER + INTRA:          -9.325
REMARK INTER:                  -9.258
REMARK INTRA:                  -0.068
REMARK UNBOUND:                -0.045
REMARK SMILES CCc1nc(S)c2cnn(-c3ccccc3)c2n1
REMARK SMILES IDX 3 1 4 2 5 3 7 4 8 5 9 6 10 7 17 8 18 9 2 10 1 11 6 12 11 14
REMARK SMILES IDX 12 15 16 16 13 17 15 18 14 19
REMARK H PARENT 6 13
ROOT
ATOM      1  C   UNL     1     -28.030   6.761   8.083  1.00  0.00    +0.131 A 
ATOM      2  N   UNL     1     -29.114   6.096   8.529  1.00  0.00    -0.226 NA
ATOM      3  C   UNL     1     -30.328   6.662   8.375  1.00  0.00    +0.108 A 
ATOM      4  C   UNL     1     -30.437   7.906   7.764  1.00  0.00    +0.071 A 
ATOM      5  C   UNL     1     -31.442   8.815   7.401  1.00  0.00    +0.149 A 
ATOM      6  N   UNL     1     -30.967   9.912   6.815  1.00  0.00    -0.174 NA
ATOM      7  N   UNL     1     -29.610   9.728   6.779  1.00  0.00    -0.215 N 
ATOM      8  C   UNL     1     -29.256   8.504   7.352  1.00  0.00    +0.167 A 
ATOM      9  N   UNL     1     -28.027   7.969   7.495  1.00  0.00    -0.213 NA
ENDROOT
BRANCH   1  10
ATOM     10  C   UNL     1     -26.693   6.104   8.299  1.00  0.00    +0.074 C 
ATOM     11  C   UNL     1     -25.685   6.552   7.253  1.00  0.00    +0.012 C 
ENDBRANCH   1  10
BRANCH   3  12
ATOM     12  S   UNL     1     -31.742   5.787   8.959  1.00  0.00    -0.123 SA
ATOM     13  H   UNL     1     -31.488   4.617   8.360  1.00  0.00    +0.110 HD
ENDBRANCH   3  12
BRANCH   7  14
ATOM     14  C   UNL     1     -28.777  10.738   6.204  1.00  0.00    +0.067 A 
ATOM     15  C   UNL     1     -29.313  12.019   5.978  1.00  0.00    +0.028 A 
ATOM     16  C   UNL     1     -27.443  10.493   5.857  1.00  0.00    +0.028 A 
ATOM     17  C   UNL     1     -28.528  13.030   5.417  1.00  0.00    +0.002 A 
ATOM     18  C   UNL     1     -26.662  11.510   5.296  1.00  0.00    +0.002 A 
ATOM     19  C   UNL     1     -27.203  12.775   5.076  1.00  0.00    +0.000 A 
ENDBRANCH   7  14
TORSDOF 3
ENDMDL
MODEL 4
REMARK VINA RESULT:    -7.894      1.648      2.204
REMARK INTER + INTRA:          -9.093
REMARK INTER:                  -8.987
REMARK INTRA:                  -0.106
REMARK UNBOUND:                -0.045
REMARK SMILES CCc1nc(S)c2cnn(-c3ccccc3)c2n1
REMARK SMILES IDX 3 1 4 2 5 3 7 4 8 5 9 6 10 7 17 8 18 9 2 10 1 11 6 12 11 14
REMARK SMILES IDX 12 15 16 16 13 17 15 18 14 19
REMARK H PARENT 6 13
ROOT
ATOM      1  C   UNL     1     -28.993   9.159   6.976  1.00  0.00    +0.131 A 
ATOM      2  N   UNL     1     -28.448  10.194   6.307  1.00  0.00    -0.226 NA
ATOM      3  C   UNL     1     -27.124  10.174   6.052  1.00  0.00    +0.108 A 
ATOM      4  C   UNL     1     -26.356   9.095   6.476  1.00  0.00    +0.071 A 
ATOM      5  C   UNL     1     -25.020   8.668   6.421  1.00  0.00    +0.149 A 
ATOM      6  N   UNL     1     -24.821   7.498   7.024  1.00  0.00    -0.174 NA
ATOM      7  N   UNL     1     -26.057   7.130   7.488  1.00  0.00    -0.215 N 
ATOM      8  C   UNL     1     -27.018   8.089   7.163  1.00  0.00    +0.167 A 
ATOM      9  N   UNL     1     -28.338   8.081   7.440  1.00  0.00    -0.213 NA
ENDROOT
BRANCH   1  10
ATOM     10  C   UNL     1     -30.468   9.236   7.262  1.00  0.00    +0.074 C 
ATOM     11  C   UNL     1     -30.941  10.679   7.327  1.00  0.00    +0.012 C 
ENDBRANCH   1  10
BRANCH   3  12
ATOM     12  S   UNL     1     -26.416  11.529   5.176  1.00  0.00    -0.123 SA
ATOM     13  H   UNL     1     -27.245  11.514   4.125  1.00  0.00    +0.110 HD
ENDBRANCH   3  12
BRANCH   7  14
ATOM     14  C   UNL     1     -26.204   5.898   8.198  1.00  0.00    +0.067 A 
ATOM     15  C   UNL     1     -25.110   5.392   8.923  1.00  0.00    +0.028 A 
ATOM     16  C   UNL     1     -27.404   5.177   8.196  1.00  0.00    +0.028 A 
ATOM     17  C   UNL     1     -25.219   4.190   9.629  1.00  0.00    +0.002 A 
ATOM     18  C   UNL     1     -27.507   3.975   8.905  1.00  0.00    +0.002 A 
ATOM     19  C   UNL     1     -26.417   3.482   9.620  1.00  0.00    +0.000 A 
ENDBRANCH   7  14
TORSDOF 3
ENDMDL
MODEL 5
REMARK VINA RESULT:    -7.708      1.907      4.685
REMARK INTER + INTRA:          -8.880
REMARK INTER:                  -8.673
REMARK INTRA:                  -0.207
REMARK UNBOUND:                -0.045
REMARK SMILES CCc1nc(S)c2cnn(-c3ccccc3)c2n1
REMARK SMILES IDX 3 1 4 2 5 3 7 4 8 5 9 6 10 7 17 8 18 9 2 10 1 11 6 12 11 14
REMARK SMILES IDX 12 15 16 16 13 17 15 18 14 19
REMARK H PARENT 6 13
ROOT
ATOM      1  C   UNL     1     -26.248   7.751   6.938  1.00  0.00    +0.131 A 
ATOM      2  N   UNL     1     -25.691   8.911   6.537  1.00  0.00    -0.226 NA
ATOM      3  C   UNL     1     -26.491   9.978   6.340  1.00  0.00    +0.108 A 
ATOM      4  C   UNL     1     -27.860   9.864   6.555  1.00  0.00    +0.071 A 
ATOM      5  C   UNL     1     -29.006  10.670   6.493  1.00  0.00    +0.149 A 
ATOM      6  N   UNL     1     -30.122  10.019   6.814  1.00  0.00    -0.174 NA
ATOM      7  N   UNL     1     -29.710   8.745   7.105  1.00  0.00    -0.215 N 
ATOM      8  C   UNL     1     -28.327   8.621   6.958  1.00  0.00    +0.167 A 
ATOM      9  N   UNL     1     -27.556   7.533   7.158  1.00  0.00    -0.213 NA
ENDROOT
BRANCH   1  10
ATOM     10  C   UNL     1     -25.322   6.579   7.119  1.00  0.00    +0.074 C 
ATOM     11  C   UNL     1     -25.925   5.540   8.051  1.00  0.00    +0.012 C 
ENDBRANCH   1  10
BRANCH   3  12
ATOM     12  S   UNL     1     -25.758  11.493   5.817  1.00  0.00    -0.123 SA
ATOM     13  H   UNL     1     -26.823  12.280   6.003  1.00  0.00    +0.110 HD
ENDBRANCH   3  12
BRANCH   7  14
ATOM     14  C   UNL     1     -30.675   7.765   7.495  1.00  0.00    +0.067 A 
ATOM     15  C   UNL     1     -31.927   7.746   6.855  1.00  0.00    +0.028 A 
ATOM     16  C   UNL     1     -30.414   6.820   8.495  1.00  0.00    +0.028 A 
ATOM     17  C   UNL     1     -32.894   6.802   7.211  1.00  0.00    +0.002 A 
ATOM     18  C   UNL     1     -31.386   5.877   8.846  1.00  0.00    +0.002 A 
ATOM     19  C   UNL     1     -32.623   5.867   8.206  1.00  0.00    +0.000 A 
ENDBRANCH   7  14
TORSDOF 3
ENDMDL
MODEL 6
REMARK VINA RESULT:    -7.655      6.749      9.387
REMARK INTER + INTRA:          -8.819
REMARK INTER:                  -8.441
REMARK INTRA:                  -0.378
REMARK UNBOUND:                -0.045
REMARK SMILES CCc1nc(S)c2cnn(-c3ccccc3)c2n1
REMARK SMILES IDX 3 1 4 2 5 3 7 4 8 5 9 6 10 7 17 8 18 9 2 10 1 11 6 12 11 14
REMARK SMILES IDX 12 15 16 16 13 17 15 18 14 19
REMARK H PARENT 6 13
ROOT
ATOM      1  C   UNL     1     -33.737   2.656   9.654  1.00  0.00    +0.131 A 
ATOM      2  N   UNL     1     -34.926   2.396  10.233  1.00  0.00    -0.226 NA
ATOM      3  C   UNL     1     -35.930   3.282  10.073  1.00  0.00    +0.108 A 
ATOM      4  C   UNL     1     -35.722   4.432   9.320  1.00  0.00    +0.071 A 
ATOM      5  C   UNL     1     -36.443   5.559   8.899  1.00  0.00    +0.149 A 
ATOM      6  N   UNL     1     -35.720   6.397   8.160  1.00  0.00    -0.174 NA
ATOM      7  N   UNL     1     -34.484   5.811   8.078  1.00  0.00    -0.215 N 
ATOM      8  C   UNL     1     -34.457   4.603   8.777  1.00  0.00    +0.167 A 
ATOM      9  N   UNL     1     -33.430   3.741   8.923  1.00  0.00    -0.213 NA
ENDROOT
BRANCH   1  10
ATOM     10  C   UNL     1     -32.637   1.653   9.881  1.00  0.00    +0.074 C 
ATOM     11  C   UNL     1     -31.269   2.311   9.805  1.00  0.00    +0.012 C 
ENDBRANCH   1  10
BRANCH   3  12
ATOM     12  S   UNL     1     -37.483   2.937  10.830  1.00  0.00    -0.123 SA
ATOM     13  H   UNL     1     -37.668   1.718  10.310  1.00  0.00    +0.110 HD
ENDBRANCH   3  12
BRANCH   7  14
ATOM     14  C   UNL     1     -33.444   6.460   7.341  1.00  0.00    +0.067 A 
ATOM     15  C   UNL     1     -33.560   6.565   5.943  1.00  0.00    +0.028 A 
ATOM     16  C   UNL     1     -32.312   6.995   7.967  1.00  0.00    +0.028 A 
ATOM     17  C   UNL     1     -32.563   7.192   5.192  1.00  0.00    +0.002 A 
ATOM     18  C   UNL     1     -31.317   7.623   7.209  1.00  0.00    +0.002 A 
ATOM     19  C   UNL     1     -31.442   7.721   5.825  1.00  0.00    +0.000 A 
ENDBRANCH   7  14
TORSDOF 3
ENDMDL
MODEL 7
REMARK VINA RESULT:    -7.561      6.879      9.478
REMARK INTER + INTRA:          -8.711
REMARK INTER:                  -8.337
REMARK INTRA:                  -0.374
REMARK UNBOUND:                -0.045
REMARK SMILES CCc1nc(S)c2cnn(-c3ccccc3)c2n1
REMARK SMILES IDX 3 1 4 2 5 3 7 4 8 5 9 6 10 7 17 8 18 9 2 10 1 11 6 12 11 14
REMARK SMILES IDX 12 15 16 16 13 17 15 18 14 19
REMARK H PARENT 6 13
ROOT
ATOM      1  C   UNL     1     -26.332   3.629   9.315  1.00  0.00    +0.131 A 
ATOM      2  N   UNL     1     -25.032   3.441   9.617  1.00  0.00    -0.226 NA
ATOM      3  C   UNL     1     -24.681   2.332  10.299  1.00  0.00    +0.108 A 
ATOM      4  C   UNL     1     -25.656   1.413  10.671  1.00  0.00    +0.071 A 
ATOM      5  C   UNL     1     -25.741   0.182  11.339  1.00  0.00    +0.149 A 
ATOM      6  N   UNL     1     -26.986  -0.280  11.426  1.00  0.00    -0.174 NA
ATOM      7  N   UNL     1     -27.753   0.662  10.792  1.00  0.00    -0.215 N 
ATOM      8  C   UNL     1     -26.963   1.711  10.316  1.00  0.00    +0.167 A 
ATOM      9  N   UNL     1     -27.349   2.812   9.641  1.00  0.00    -0.213 NA
ENDROOT
BRANCH   1  10
ATOM     10  C   UNL     1     -26.683   4.893   8.577  1.00  0.00    +0.074 C 
ATOM     11  C   UNL     1     -25.433   5.630   8.124  1.00  0.00    +0.012 C 
ENDBRANCH   1  10
BRANCH   3  12
ATOM     12  S   UNL     1     -22.980   2.090  10.689  1.00  0.00    -0.123 SA
ATOM     13  H   UNL     1     -22.462   2.767   9.658  1.00  0.00    +0.110 HD
ENDBRANCH   3  12
BRANCH   7  14
ATOM     14  C   UNL     1     -29.167   0.475  10.702  1.00  0.00    +0.067 A 
ATOM     15  C   UNL     1     -29.672  -0.523   9.849  1.00  0.00    +0.028 A 
ATOM     16  C   UNL     1     -30.069   1.254  11.437  1.00  0.00    +0.028 A 
ATOM     17  C   UNL     1     -31.049  -0.733   9.736  1.00  0.00    +0.002 A 
ATOM     18  C   UNL     1     -31.446   1.039  11.320  1.00  0.00    +0.002 A 
ATOM     19  C   UNL     1     -31.936   0.048  10.472  1.00  0.00    +0.000 A 
ENDBRANCH   7  14
TORSDOF 3
ENDMDL
MODEL 8
REMARK VINA RESULT:    -7.387      1.720      2.320
REMARK INTER + INTRA:          -8.512
REMARK INTER:                  -8.413
REMARK INTRA:                  -0.100
REMARK UNBOUND:                -0.045
REMARK SMILES CCc1nc(S)c2cnn(-c3ccccc3)c2n1
REMARK SMILES IDX 3 1 4 2 5 3 7 4 8 5 9 6 10 7 17 8 18 9 2 10 1 11 6 12 11 14
REMARK SMILES IDX 12 15 16 16 13 17 15 18 14 19
REMARK H PARENT 6 13
ROOT
ATOM      1  C   UNL     1     -31.399   8.073   7.023  1.00  0.00    +0.131 A 
ATOM      2  N   UNL     1     -31.690   9.354   6.725  1.00  0.00    -0.226 NA
ATOM      3  C   UNL     1     -30.681  10.246   6.655  1.00  0.00    +0.108 A 
ATOM      4  C   UNL     1     -29.375   9.830   6.885  1.00  0.00    +0.071 A 
ATOM      5  C   UNL     1     -28.083  10.378   6.903  1.00  0.00    +0.149 A 
ATOM      6  N   UNL     1     -27.142   9.487   7.203  1.00  0.00    -0.174 NA
ATOM      7  N   UNL     1     -27.820   8.310   7.384  1.00  0.00    -0.215 N 
ATOM      8  C   UNL     1     -29.191   8.490   7.192  1.00  0.00    +0.167 A 
ATOM      9  N   UNL     1     -30.177   7.574   7.277  1.00  0.00    -0.213 NA
ENDROOT
BRANCH   1  10
ATOM     10  C   UNL     1     -32.558   7.117   7.117  1.00  0.00    +0.074 C 
ATOM     11  C   UNL     1     -32.948   6.588   5.746  1.00  0.00    +0.012 C 
ENDBRANCH   1  10
BRANCH   3  12
ATOM     12  S   UNL     1     -31.067  11.921   6.264  1.00  0.00    -0.123 SA
ATOM     13  H   UNL     1     -30.380  12.498   7.257  1.00  0.00    +0.110 HD
ENDBRANCH   3  12
BRANCH   7  14
ATOM     14  C   UNL     1     -27.096   7.125   7.724  1.00  0.00    +0.067 A 
ATOM     15  C   UNL     1     -25.761   6.995   7.303  1.00  0.00    +0.028 A 
ATOM     16  C   UNL     1     -27.675   6.087   8.465  1.00  0.00    +0.028 A 
ATOM     17  C   UNL     1     -25.024   5.850   7.618  1.00  0.00    +0.002 A 
ATOM     18  C   UNL     1     -26.931   4.944   8.778  1.00  0.00    +0.002 A 
ATOM     19  C   UNL     1     -25.609   4.825   8.355  1.00  0.00    +0.000 A 
ENDBRANCH   7  14
TORSDOF 3
ENDMDL
MODEL 9
REMARK VINA RESULT:    -7.207      9.112     11.057
REMARK INTER + INTRA:          -8.306
REMARK INTER:                  -7.922
REMARK INTRA:                  -0.384
REMARK UNBOUND:                -0.045
REMARK SMILES CCc1nc(S)c2cnn(-c3ccccc3)c2n1
REMARK SMILES IDX 3 1 4 2 5 3 7 4 8 5 9 6 10 7 17 8 18 9 2 10 1 11 6 12 11 14
REMARK SMILES IDX 12 15 16 16 13 17 15 18 14 19
REMARK H PARENT 6 13
ROOT
ATOM      1  C   UNL     1     -25.445  -0.881  10.518  1.00  0.00    +0.131 A 
ATOM      2  N   UNL     1     -24.276  -0.214  10.453  1.00  0.00    -0.226 NA
ATOM      3  C   UNL     1     -24.223   1.044  10.935  1.00  0.00    +0.108 A 
ATOM      4  C   UNL     1     -25.363   1.622  11.485  1.00  0.00    +0.071 A 
ATOM      5  C   UNL     1     -25.744   2.831  12.085  1.00  0.00    +0.149 A 
ATOM      6  N   UNL     1     -27.026   2.854  12.444  1.00  0.00    -0.174 NA
ATOM      7  N   UNL     1     -27.512   1.626  12.080  1.00  0.00    -0.215 N 
ATOM      8  C   UNL     1     -26.513   0.847  11.493  1.00  0.00    +0.167 A 
ATOM      9  N   UNL     1     -26.602  -0.411  11.015  1.00  0.00    -0.213 NA
ENDROOT
BRANCH   1  10
ATOM     10  C   UNL     1     -25.466  -2.273   9.945  1.00  0.00    +0.074 C 
ATOM     11  C   UNL     1     -24.061  -2.759   9.629  1.00  0.00    +0.012 C 
ENDBRANCH   1  10
BRANCH   3  12
ATOM     12  S   UNL     1     -22.692   1.912  10.848  1.00  0.00    -0.123 SA
ATOM     13  H   UNL     1     -23.191   3.129  10.597  1.00  0.00    +0.110 HD
ENDBRANCH   3  12
BRANCH   7  14
ATOM     14  C   UNL     1     -28.885   1.311  12.326  1.00  0.00    +0.067 A 
ATOM     15  C   UNL     1     -29.288   0.988  13.634  1.00  0.00    +0.028 A 
ATOM     16  C   UNL     1     -29.843   1.314  11.306  1.00  0.00    +0.028 A 
ATOM     17  C   UNL     1     -30.622   0.674  13.911  1.00  0.00    +0.002 A 
ATOM     18  C   UNL     1     -31.177   1.000  11.589  1.00  0.00    +0.002 A 
ATOM     19  C   UNL     1     -31.566   0.681  12.888  1.00  0.00    +0.000 A 
ENDBRANCH   7  14
TORSDOF 3
ENDMDL
