REMARK SMILES CCCC(=O)OCCc1ccccc1
REMARK SMILES IDX 4 1 5 2 3 3 2 4 1 5 6 6 7 7 8 8 9 9 10 10 14 11 11 12 13 13
REMARK SMILES IDX 12 14
REMARK H PARENT
ROOT
ATOM      1  C   UNL     1      -1.711   0.121  -1.010  1.00  0.00    +0.305 C 
ATOM      2  O   UNL     1      -2.072  -0.519  -1.988  1.00  0.00    -0.252 OA
ENDROOT
BRANCH   1   3
ATOM      3  C   UNL     1      -2.551   0.408   0.212  1.00  0.00    +0.122 C 
BRANCH   3   4
ATOM      4  C   UNL     1      -3.934  -0.231   0.117  1.00  0.00    +0.008 C 
ATOM      5  C   UNL     1      -4.769   0.061   1.353  1.00  0.00    +0.004 C 
ENDBRANCH   3   4
ENDBRANCH   1   3
BRANCH   1   6
ATOM      6  O   UNL     1      -0.484   0.694  -0.858  1.00  0.00    -0.465 OA
BRANCH   6   7
ATOM      7  C   UNL     1       0.420   0.450  -1.947  1.00  0.00    +0.237 C 
BRANCH   7   8
ATOM      8  C   UNL     1       1.780   1.069  -1.625  1.00  0.00    +0.077 C 
BRANCH   8   9
ATOM      9  C   UNL     1       2.535   0.288  -0.575  1.00  0.00    -0.045 A 
ATOM     10  C   UNL     1       2.372   0.583   0.785  1.00  0.00    +0.004 A 
ATOM     11  C   UNL     1       3.390  -0.759  -0.946  1.00  0.00    +0.004 A 
ATOM     12  C   UNL     1       3.057  -0.150   1.756  1.00  0.00    +0.000 A 
ATOM     13  C   UNL     1       4.075  -1.490   0.026  1.00  0.00    +0.000 A 
ATOM     14  C   UNL     1       3.909  -1.185   1.376  1.00  0.00    +0.000 A 
ENDBRANCH   8   9
ENDBRANCH   7   8
ENDBRANCH   6   7
ENDBRANCH   1   6
TORSDOF 6
