REMARK SMILES CCNc1ncnc2c1cnn2-c1ccccc1
REMARK SMILES IDX 3 1 2 3 1 4 4 5 9 6 5 7 10 8 8 9 6 10 11 11 12 12 7 13 13 14
REMARK SMILES IDX 14 15 18 16 15 17 17 18 16 19
REMARK H PARENT 3 2
ROOT
ATOM      1  N   UNL     1       3.312  -1.081  -0.499  1.00  0.00    -0.370 N 
ATOM      2  H   UNL     1       3.175  -1.235  -1.491  1.00  0.00    +0.162 HD
ENDROOT
BRANCH   1   3
ATOM      3  C   UNL     1       4.608  -0.528  -0.134  1.00  0.00    +0.111 C 
ATOM      4  C   UNL     1       4.820   0.843  -0.755  1.00  0.00    +0.027 C 
ENDBRANCH   1   3
BRANCH   1   5
ATOM      5  C   UNL     1       2.186  -0.601   0.161  1.00  0.00    +0.140 A 
ATOM      6  C   UNL     1       0.890  -0.780  -0.346  1.00  0.00    +0.082 A 
ATOM      7  N   UNL     1       2.309   0.051   1.341  1.00  0.00    -0.219 NA
ATOM      8  C   UNL     1       0.301  -1.383  -1.467  1.00  0.00    +0.150 A 
ATOM      9  C   UNL     1      -0.177  -0.270   0.379  1.00  0.00    +0.168 A 
ATOM     10  C   UNL     1       1.202   0.499   1.958  1.00  0.00    +0.226 A 
ATOM     11  N   UNL     1      -1.025  -1.266  -1.490  1.00  0.00    -0.174 NA
ATOM     12  N   UNL     1      -1.331  -0.580  -0.343  1.00  0.00    -0.215 N 
ATOM     13  N   UNL     1      -0.070   0.391   1.551  1.00  0.00    -0.216 NA
BRANCH  12  14
ATOM     14  C   UNL     1      -2.698  -0.284  -0.046  1.00  0.00    +0.067 A 
ATOM     15  C   UNL     1      -3.699  -0.706  -0.939  1.00  0.00    +0.028 A 
ATOM     16  C   UNL     1      -3.074   0.414   1.108  1.00  0.00    +0.028 A 
ATOM     17  C   UNL     1      -5.045  -0.433  -0.680  1.00  0.00    +0.002 A 
ATOM     18  C   UNL     1      -4.423   0.684   1.362  1.00  0.00    +0.002 A 
ATOM     19  C   UNL     1      -5.406   0.262   0.471  1.00  0.00    +0.000 A 
ENDBRANCH  12  14
ENDBRANCH   1   5
TORSDOF 3
