MODEL 1
REMARK VINA RESULT:   -10.588      0.000      0.000
REMARK INTER + INTRA:         -12.581
REMARK INTER:                 -12.444
REMARK INTRA:                  -0.136
REMARK UNBOUND:                -0.136
REMARK SMILES Brc1cccc(Nc2ncnc3c2cnn3-c2ccccc2)c1
REMARK SMILES IDX 7 1 6 3 2 4 3 5 23 6 4 7 5 8 1 9 8 10 13 11 9 12 14 13 12 14
REMARK SMILES IDX 10 15 15 16 16 17 11 18 17 19 18 20 22 21 19 22 21 23 20 24
REMARK H PARENT 7 2
ROOT
ATOM      1  N   UNL     1     -25.478   4.997   8.180  1.00  0.00    -0.339 N 
ATOM      2  H   UNL     1     -25.393   4.530   7.279  1.00  0.00    +0.168 HD
ENDROOT
BRANCH   1   3
ATOM      3  C   UNL     1     -25.428   4.062   9.235  1.00  0.00    +0.041 A 
ATOM      4  C   UNL     1     -26.199   1.950  10.153  1.00  0.00    +0.020 A 
ATOM      5  C   UNL     1     -25.448   2.158  11.307  1.00  0.00    +0.016 A 
ATOM      6  C   UNL     1     -26.197   2.895   9.127  1.00  0.00    +0.041 A 
ATOM      7  C   UNL     1     -24.697   3.323  11.436  1.00  0.00    +0.003 A 
ATOM      8  C   UNL     1     -24.693   4.272  10.409  1.00  0.00    +0.026 A 
ATOM      9 Br   UNL     1     -27.230   0.376   9.976  1.00  0.00    -0.051 Br
ENDBRANCH   1   3
BRANCH   1  10
ATOM     10  C   UNL     1     -26.377   6.059   8.003  1.00  0.00    +0.144 A 
ATOM     11  C   UNL     1     -26.109   7.228   7.278  1.00  0.00    +0.082 A 
ATOM     12  N   UNL     1     -27.613   5.905   8.531  1.00  0.00    -0.218 NA
ATOM     13  C   UNL     1     -25.043   7.761   6.536  1.00  0.00    +0.150 A 
ATOM     14  C   UNL     1     -27.114   8.178   7.183  1.00  0.00    +0.168 A 
ATOM     15  C   UNL     1     -28.507   6.897   8.373  1.00  0.00    +0.226 A 
ATOM     16  N   UNL     1     -25.310   8.963   6.030  1.00  0.00    -0.174 NA
ATOM     17  N   UNL     1     -26.595   9.230   6.425  1.00  0.00    -0.215 N 
ATOM     18  N   UNL     1     -28.342   8.061   7.730  1.00  0.00    -0.216 NA
BRANCH  17  19
ATOM     19  C   UNL     1     -27.207  10.463   6.041  1.00  0.00    +0.067 A 
ATOM     20  C   UNL     1     -28.541  10.759   6.345  1.00  0.00    +0.028 A 
ATOM     21  C   UNL     1     -26.446  11.413   5.335  1.00  0.00    +0.028 A 
ATOM     22  C   UNL     1     -29.102  11.979   5.952  1.00  0.00    +0.002 A 
ATOM     23  C   UNL     1     -27.012  12.630   4.944  1.00  0.00    +0.002 A 
ATOM     24  C   UNL     1     -28.340  12.912   5.253  1.00  0.00    +0.000 A 
ENDBRANCH  17  19
ENDBRANCH   1  10
TORSDOF 3
ENDMDL
MODEL 2
REMARK VINA RESULT:   -10.583      0.868      2.069
REMARK INTER + INTRA:         -12.575
REMARK INTER:                 -12.604
REMARK INTRA:                   0.029
REMARK UNBOUND:                -0.136
REMARK SMILES Brc1cccc(Nc2ncnc3c2cnn3-c2ccccc2)c1
REMARK SMILES IDX 7 1 6 3 2 4 3 5 23 6 4 7 5 8 1 9 8 10 13 11 9 12 14 13 12 14
REMARK SMILES IDX 10 15 15 16 16 17 11 18 17 19 18 20 22 21 19 22 21 23 20 24
REMARK H PARENT 7 2
ROOT
ATOM      1  N   UNL     1     -27.066   4.817   8.932  1.00  0.00    -0.339 N 
ATOM      2  H   UNL     1     -27.843   5.081   9.535  1.00  0.00    +0.168 HD
ENDROOT
BRANCH   1   3
ATOM      3  C   UNL     1     -26.252   3.852   9.561  1.00  0.00    +0.041 A 
ATOM      4  C   UNL     1     -25.759   1.504   9.942  1.00  0.00    +0.020 A 
ATOM      5  C   UNL     1     -24.726   1.843  10.812  1.00  0.00    +0.016 A 
ATOM      6  C   UNL     1     -26.522   2.497   9.326  1.00  0.00    +0.041 A 
ATOM      7  C   UNL     1     -24.462   3.186  11.072  1.00  0.00    +0.003 A 
ATOM      8  C   UNL     1     -25.225   4.183  10.455  1.00  0.00    +0.026 A 
ATOM      9 Br   UNL     1     -26.131  -0.316   9.594  1.00  0.00    -0.051 Br
ENDBRANCH   1   3
BRANCH   1  10
ATOM     10  C   UNL     1     -26.669   5.975   8.249  1.00  0.00    +0.144 A 
ATOM     11  C   UNL     1     -27.516   7.036   7.905  1.00  0.00    +0.082 A 
ATOM     12  N   UNL     1     -25.353   6.089   7.956  1.00  0.00    -0.218 NA
ATOM     13  C   UNL     1     -28.871   7.368   8.062  1.00  0.00    +0.150 A 
ATOM     14  C   UNL     1     -26.963   8.122   7.243  1.00  0.00    +0.168 A 
ATOM     15  C   UNL     1     -24.931   7.191   7.311  1.00  0.00    +0.226 A 
ATOM     16  N   UNL     1     -29.186   8.545   7.525  1.00  0.00    -0.174 NA
ATOM     17  N   UNL     1     -28.006   9.022   7.015  1.00  0.00    -0.215 N 
ATOM     18  N   UNL     1     -25.660   8.241   6.910  1.00  0.00    -0.216 NA
BRANCH  17  19
ATOM     19  C   UNL     1     -27.985  10.291   6.359  1.00  0.00    +0.067 A 
ATOM     20  C   UNL     1     -26.875  10.734   5.630  1.00  0.00    +0.028 A 
ATOM     21  C   UNL     1     -29.115  11.124   6.446  1.00  0.00    +0.028 A 
ATOM     22  C   UNL     1     -26.896  11.984   5.001  1.00  0.00    +0.002 A 
ATOM     23  C   UNL     1     -29.130  12.372   5.817  1.00  0.00    +0.002 A 
ATOM     24  C   UNL     1     -28.020  12.801   5.094  1.00  0.00    +0.000 A 
ENDBRANCH  17  19
ENDBRANCH   1  10
TORSDOF 3
ENDMDL
MODEL 3
REMARK VINA RESULT:    -9.820      5.825      7.526
REMARK INTER + INTRA:         -11.678
REMARK INTER:                 -10.977
REMARK INTRA:                  -0.701
REMARK UNBOUND:                -0.136
REMARK SMILES Brc1cccc(Nc2ncnc3c2cnn3-c2ccccc2)c1
REMARK SMILES IDX 7 1 6 3 2 4 3 5 23 6 4 7 5 8 1 9 8 10 13 11 9 12 14 13 12 14
REMARK SMILES IDX 10 15 15 16 16 17 11 18 17 19 18 20 22 21 19 22 21 23 20 24
REMARK H PARENT 7 2
ROOT
ATOM      1  N   UNL     1     -34.301   4.678   7.424  1.00  0.00    -0.339 N 
ATOM      2  H   UNL     1     -34.845   4.172   6.729  1.00  0.00    +0.168 HD
ENDROOT
BRANCH   1   3
ATOM      3  C   UNL     1     -34.990   4.737   8.654  1.00  0.00    +0.041 A 
ATOM      4  C   UNL     1     -37.026   5.306   9.848  1.00  0.00    +0.020 A 
ATOM      5  C   UNL     1     -36.437   4.951  11.059  1.00  0.00    +0.016 A 
ATOM      6  C   UNL     1     -36.310   5.208   8.655  1.00  0.00    +0.041 A 
ATOM      7  C   UNL     1     -35.118   4.503  11.074  1.00  0.00    +0.003 A 
ATOM      8  C   UNL     1     -34.398   4.403   9.879  1.00  0.00    +0.026 A 
ATOM      9 Br   UNL     1     -38.811   5.927   9.822  1.00  0.00    -0.051 Br
ENDBRANCH   1   3
BRANCH   1  10
ATOM     10  C   UNL     1     -33.643   5.716   6.748  1.00  0.00    +0.144 A 
ATOM     11  C   UNL     1     -32.542   6.428   7.243  1.00  0.00    +0.082 A 
ATOM     12  N   UNL     1     -34.078   6.002   5.499  1.00  0.00    -0.218 NA
ATOM     13  C   UNL     1     -31.747   6.427   8.399  1.00  0.00    +0.150 A 
ATOM     14  C   UNL     1     -31.993   7.417   6.440  1.00  0.00    +0.168 A 
ATOM     15  C   UNL     1     -33.464   6.983   4.813  1.00  0.00    +0.226 A 
ATOM     16  N   UNL     1     -30.787   7.348   8.375  1.00  0.00    -0.174 NA
ATOM     17  N   UNL     1     -30.931   7.968   7.160  1.00  0.00    -0.215 N 
ATOM     18  N   UNL     1     -32.432   7.742   5.206  1.00  0.00    -0.216 NA
BRANCH  17  19
ATOM     19  C   UNL     1     -30.041   9.026   6.801  1.00  0.00    +0.067 A 
ATOM     20  C   UNL     1     -28.706   8.790   6.451  1.00  0.00    +0.028 A 
ATOM     21  C   UNL     1     -30.519  10.350   6.797  1.00  0.00    +0.028 A 
ATOM     22  C   UNL     1     -27.867   9.855   6.104  1.00  0.00    +0.002 A 
ATOM     23  C   UNL     1     -29.676  11.410   6.451  1.00  0.00    +0.002 A 
ATOM     24  C   UNL     1     -28.350  11.162   6.105  1.00  0.00    +0.000 A 
ENDBRANCH  17  19
ENDBRANCH   1  10
TORSDOF 3
ENDMDL
MODEL 4
REMARK VINA RESULT:    -9.628      6.631      9.942
REMARK INTER + INTRA:         -11.453
REMARK INTER:                 -10.807
REMARK INTRA:                  -0.646
REMARK UNBOUND:                -0.136
REMARK SMILES Brc1cccc(Nc2ncnc3c2cnn3-c2ccccc2)c1
REMARK SMILES IDX 7 1 6 3 2 4 3 5 23 6 4 7 5 8 1 9 8 10 13 11 9 12 14 13 12 14
REMARK SMILES IDX 10 15 15 16 16 17 11 18 17 19 18 20 22 21 19 22 21 23 20 24
REMARK H PARENT 7 2
ROOT
ATOM      1  N   UNL     1     -31.465   7.262   6.855  1.00  0.00    -0.339 N 
ATOM      2  H   UNL     1     -30.729   6.711   6.417  1.00  0.00    +0.168 HD
ENDROOT
BRANCH   1   3
ATOM      3  C   UNL     1     -31.061   8.604   7.011  1.00  0.00    +0.041 A 
ATOM      4  C   UNL     1     -29.321  10.277   6.735  1.00  0.00    +0.020 A 
ATOM      5  C   UNL     1     -30.131  11.242   7.329  1.00  0.00    +0.016 A 
ATOM      6  C   UNL     1     -29.777   8.967   6.583  1.00  0.00    +0.041 A 
ATOM      7  C   UNL     1     -31.401  10.890   7.778  1.00  0.00    +0.003 A 
ATOM      8  C   UNL     1     -31.860   9.577   7.625  1.00  0.00    +0.026 A 
ATOM      9 Br   UNL     1     -27.592  10.745   6.134  1.00  0.00    -0.051 Br
ENDBRANCH   1   3
BRANCH   1  10
ATOM     10  C   UNL     1     -32.091   6.429   7.794  1.00  0.00    +0.144 A 
ATOM     11  C   UNL     1     -33.475   6.256   7.920  1.00  0.00    +0.082 A 
ATOM     12  N   UNL     1     -31.281   5.700   8.596  1.00  0.00    -0.218 NA
ATOM     13  C   UNL     1     -34.636   6.728   7.288  1.00  0.00    +0.150 A 
ATOM     14  C   UNL     1     -33.935   5.380   8.891  1.00  0.00    +0.168 A 
ATOM     15  C   UNL     1     -31.843   4.881   9.503  1.00  0.00    +0.226 A 
ATOM     16  N   UNL     1     -35.755   6.235   7.815  1.00  0.00    -0.174 NA
ATOM     17  N   UNL     1     -35.329   5.395   8.811  1.00  0.00    -0.215 N 
ATOM     18  N   UNL     1     -33.147   4.668   9.725  1.00  0.00    -0.216 NA
BRANCH  17  19
ATOM     19  C   UNL     1     -36.293   4.685   9.592  1.00  0.00    +0.067 A 
ATOM     20  C   UNL     1     -36.365   3.287   9.595  1.00  0.00    +0.028 A 
ATOM     21  C   UNL     1     -37.200   5.413  10.385  1.00  0.00    +0.028 A 
ATOM     22  C   UNL     1     -37.323   2.631  10.375  1.00  0.00    +0.002 A 
ATOM     23  C   UNL     1     -38.155   4.752  11.161  1.00  0.00    +0.002 A 
ATOM     24  C   UNL     1     -38.217   3.361  11.156  1.00  0.00    +0.000 A 
ENDBRANCH  17  19
ENDBRANCH   1  10
TORSDOF 3
ENDMDL
MODEL 5
REMARK VINA RESULT:    -9.612      2.508      7.647
REMARK INTER + INTRA:         -11.434
REMARK INTER:                 -11.876
REMARK INTRA:                   0.441
REMARK UNBOUND:                -0.136
REMARK SMILES Brc1cccc(Nc2ncnc3c2cnn3-c2ccccc2)c1
REMARK SMILES IDX 7 1 6 3 2 4 3 5 23 6 4 7 5 8 1 9 8 10 13 11 9 12 14 13 12 14
REMARK SMILES IDX 10 15 15 16 16 17 11 18 17 19 18 20 22 21 19 22 21 23 20 24
REMARK H PARENT 7 2
ROOT
ATOM      1  N   UNL     1     -27.660   9.656   6.096  1.00  0.00    -0.339 N 
ATOM      2  H   UNL     1     -27.111  10.493   5.913  1.00  0.00    +0.168 HD
ENDROOT
BRANCH   1   3
ATOM      3  C   UNL     1     -28.921   9.992   6.632  1.00  0.00    +0.041 A 
ATOM      4  C   UNL     1     -31.213   9.325   7.079  1.00  0.00    +0.020 A 
ATOM      5  C   UNL     1     -31.492  10.579   7.618  1.00  0.00    +0.016 A 
ATOM      6  C   UNL     1     -29.942   9.033   6.583  1.00  0.00    +0.041 A 
ATOM      7  C   UNL     1     -30.492  11.547   7.652  1.00  0.00    +0.003 A 
ATOM      8  C   UNL     1     -29.217  11.257   7.156  1.00  0.00    +0.026 A 
ATOM      9 Br   UNL     1     -32.569   8.009   7.018  1.00  0.00    -0.051 Br
ENDBRANCH   1   3
BRANCH   1  10
ATOM     10  C   UNL     1     -26.765   8.671   6.538  1.00  0.00    +0.144 A 
ATOM     11  C   UNL     1     -27.100   7.593   7.367  1.00  0.00    +0.082 A 
ATOM     12  N   UNL     1     -25.497   8.747   6.072  1.00  0.00    -0.218 NA
ATOM     13  C   UNL     1     -28.250   7.096   8.001  1.00  0.00    +0.150 A 
ATOM     14  C   UNL     1     -26.099   6.693   7.700  1.00  0.00    +0.168 A 
ATOM     15  C   UNL     1     -24.611   7.814   6.463  1.00  0.00    +0.226 A 
ATOM     16  N   UNL     1     -28.020   5.993   8.709  1.00  0.00    -0.174 NA
ATOM     17  N   UNL     1     -26.686   5.733   8.527  1.00  0.00    -0.215 N 
ATOM     18  N   UNL     1     -24.820   6.769   7.275  1.00  0.00    -0.216 NA
BRANCH  17  19
ATOM     19  C   UNL     1     -26.099   4.594   9.159  1.00  0.00    +0.067 A 
ATOM     20  C   UNL     1     -24.970   4.699   9.981  1.00  0.00    +0.028 A 
ATOM     21  C   UNL     1     -26.671   3.326   8.951  1.00  0.00    +0.028 A 
ATOM     22  C   UNL     1     -24.426   3.559  10.583  1.00  0.00    +0.002 A 
ATOM     23  C   UNL     1     -26.122   2.190   9.554  1.00  0.00    +0.002 A 
ATOM     24  C   UNL     1     -25.000   2.307  10.369  1.00  0.00    +0.000 A 
ENDBRANCH  17  19
ENDBRANCH   1  10
TORSDOF 3
ENDMDL
MODEL 6
REMARK VINA RESULT:    -9.578      3.319      5.899
REMARK INTER + INTRA:         -11.394
REMARK INTER:                 -11.043
REMARK INTRA:                  -0.351
REMARK UNBOUND:                -0.136
REMARK SMILES Brc1cccc(Nc2ncnc3c2cnn3-c2ccccc2)c1
REMARK SMILES IDX 7 1 6 3 2 4 3 5 23 6 4 7 5 8 1 9 8 10 13 11 9 12 14 13 12 14
REMARK SMILES IDX 10 15 15 16 16 17 11 18 17 19 18 20 22 21 19 22 21 23 20 24
REMARK H PARENT 7 2
ROOT
ATOM      1  N   UNL     1     -26.499   0.528  12.102  1.00  0.00    -0.339 N 
ATOM      2  H   UNL     1     -26.261  -0.324  11.597  1.00  0.00    +0.168 HD
ENDROOT
BRANCH   1   3
ATOM      3  C   UNL     1     -27.802   0.446  12.635  1.00  0.00    +0.041 A 
ATOM      4  C   UNL     1     -30.037  -0.492  12.478  1.00  0.00    +0.020 A 
ATOM      5  C   UNL     1     -30.447   0.254  13.580  1.00  0.00    +0.016 A 
ATOM      6  C   UNL     1     -28.729  -0.394  12.003  1.00  0.00    +0.041 A 
ATOM      7  C   UNL     1     -29.542   1.109  14.204  1.00  0.00    +0.003 A 
ATOM      8  C   UNL     1     -28.230   1.209  13.730  1.00  0.00    +0.026 A 
ATOM      9 Br   UNL     1     -31.263  -1.646  11.619  1.00  0.00    -0.051 Br
ENDBRANCH   1   3
BRANCH   1  10
ATOM     10  C   UNL     1     -25.913   1.592  11.402  1.00  0.00    +0.144 A 
ATOM     11  C   UNL     1     -26.607   2.508  10.602  1.00  0.00    +0.082 A 
ATOM     12  N   UNL     1     -24.582   1.771  11.568  1.00  0.00    -0.218 NA
ATOM     13  C   UNL     1     -27.937   2.744  10.218  1.00  0.00    +0.150 A 
ATOM     14  C   UNL     1     -25.881   3.518   9.989  1.00  0.00    +0.168 A 
ATOM     15  C   UNL     1     -23.985   2.788  10.922  1.00  0.00    +0.226 A 
ATOM     16  N   UNL     1     -28.068   3.788   9.404  1.00  0.00    -0.174 NA
ATOM     17  N   UNL     1     -26.796   4.278   9.257  1.00  0.00    -0.215 N 
ATOM     18  N   UNL     1     -24.548   3.695  10.112  1.00  0.00    -0.216 NA
BRANCH  17  19
ATOM     19  C   UNL     1     -26.574   5.423   8.432  1.00  0.00    +0.067 A 
ATOM     20  C   UNL     1     -25.397   5.591   7.692  1.00  0.00    +0.028 A 
ATOM     21  C   UNL     1     -27.568   6.416   8.359  1.00  0.00    +0.028 A 
ATOM     22  C   UNL     1     -25.219   6.727   6.896  1.00  0.00    +0.002 A 
ATOM     23  C   UNL     1     -27.385   7.549   7.562  1.00  0.00    +0.002 A 
ATOM     24  C   UNL     1     -26.210   7.705   6.831  1.00  0.00    +0.000 A 
ENDBRANCH  17  19
ENDBRANCH   1  10
TORSDOF 3
ENDMDL
MODEL 7
REMARK VINA RESULT:    -9.399      6.726      8.680
REMARK INTER + INTRA:         -11.184
REMARK INTER:                 -10.512
REMARK INTRA:                  -0.672
REMARK UNBOUND:                -0.136
REMARK SMILES Brc1cccc(Nc2ncnc3c2cnn3-c2ccccc2)c1
REMARK SMILES IDX 7 1 6 3 2 4 3 5 23 6 4 7 5 8 1 9 8 10 13 11 9 12 14 13 12 14
REMARK SMILES IDX 10 15 15 16 16 17 11 18 17 19 18 20 22 21 19 22 21 23 20 24
REMARK H PARENT 7 2
ROOT
ATOM      1  N   UNL     1     -30.375   1.699   9.747  1.00  0.00    -0.339 N 
ATOM      2  H   UNL     1     -30.193   0.851   9.213  1.00  0.00    +0.168 HD
ENDROOT
BRANCH   1   3
ATOM      3  C   UNL     1     -29.356   1.920  10.698  1.00  0.00    +0.041 A 
ATOM      4  C   UNL     1     -27.192   2.897  11.209  1.00  0.00    +0.020 A 
ATOM      5  C   UNL     1     -27.239   2.370  12.497  1.00  0.00    +0.016 A 
ATOM      6  C   UNL     1     -28.237   2.670  10.312  1.00  0.00    +0.041 A 
ATOM      7  C   UNL     1     -28.335   1.605  12.886  1.00  0.00    +0.003 A 
ATOM      8  C   UNL     1     -29.384   1.376  11.989  1.00  0.00    +0.026 A 
ATOM      9 Br   UNL     1     -25.702   3.927  10.672  1.00  0.00    -0.051 Br
ENDBRANCH   1   3
BRANCH   1  10
ATOM     10  C   UNL     1     -31.763   1.774   9.929  1.00  0.00    +0.144 A 
ATOM     11  C   UNL     1     -32.527   2.943   9.814  1.00  0.00    +0.082 A 
ATOM     12  N   UNL     1     -32.409   0.612  10.178  1.00  0.00    -0.218 NA
ATOM     13  C   UNL     1     -32.306   4.296   9.514  1.00  0.00    +0.150 A 
ATOM     14  C   UNL     1     -33.897   2.845  10.008  1.00  0.00    +0.168 A 
ATOM     15  C   UNL     1     -33.743   0.641  10.348  1.00  0.00    +0.226 A 
ATOM     16  N   UNL     1     -33.419   5.026   9.541  1.00  0.00    -0.174 NA
ATOM     17  N   UNL     1     -34.413   4.133   9.845  1.00  0.00    -0.215 N 
ATOM     18  N   UNL     1     -34.558   1.703  10.291  1.00  0.00    -0.216 NA
BRANCH  17  19
ATOM     19  C   UNL     1     -35.762   4.592   9.951  1.00  0.00    +0.067 A 
ATOM     20  C   UNL     1     -36.737   4.264   9.001  1.00  0.00    +0.028 A 
ATOM     21  C   UNL     1     -36.125   5.399  11.045  1.00  0.00    +0.028 A 
ATOM     22  C   UNL     1     -38.048   4.733   9.143  1.00  0.00    +0.002 A 
ATOM     23  C   UNL     1     -37.436   5.866  11.181  1.00  0.00    +0.002 A 
ATOM     24  C   UNL     1     -38.396   5.533  10.230  1.00  0.00    +0.000 A 
ENDBRANCH  17  19
ENDBRANCH   1  10
TORSDOF 3
ENDMDL
MODEL 8
REMARK VINA RESULT:    -9.359      6.119      8.016
REMARK INTER + INTRA:         -11.136
REMARK INTER:                 -10.846
REMARK INTRA:                  -0.290
REMARK UNBOUND:                -0.136
REMARK SMILES Brc1cccc(Nc2ncnc3c2cnn3-c2ccccc2)c1
REMARK SMILES IDX 7 1 6 3 2 4 3 5 23 6 4 7 5 8 1 9 8 10 13 11 9 12 14 13 12 14
REMARK SMILES IDX 10 15 15 16 16 17 11 18 17 19 18 20 22 21 19 22 21 23 20 24
REMARK H PARENT 7 2
ROOT
ATOM      1  N   UNL     1     -34.915   4.743   8.272  1.00  0.00    -0.339 N 
ATOM      2  H   UNL     1     -35.224   5.013   7.340  1.00  0.00    +0.168 HD
ENDROOT
BRANCH   1   3
ATOM      3  C   UNL     1     -35.961   4.889   9.207  1.00  0.00    +0.041 A 
ATOM      4  C   UNL     1     -37.680   3.830  10.557  1.00  0.00    +0.020 A 
ATOM      5  C   UNL     1     -38.100   5.072  11.027  1.00  0.00    +0.016 A 
ATOM      6  C   UNL     1     -36.625   3.737   9.649  1.00  0.00    +0.041 A 
ATOM      7  C   UNL     1     -37.463   6.226  10.579  1.00  0.00    +0.003 A 
ATOM      8  C   UNL     1     -36.404   6.135   9.670  1.00  0.00    +0.026 A 
ATOM      9 Br   UNL     1     -38.548   2.260  11.151  1.00  0.00    -0.051 Br
ENDBRANCH   1   3
BRANCH   1  10
ATOM     10  C   UNL     1     -33.579   5.153   8.392  1.00  0.00    +0.144 A 
ATOM     11  C   UNL     1     -33.045   6.326   7.844  1.00  0.00    +0.082 A 
ATOM     12  N   UNL     1     -32.769   4.375   9.146  1.00  0.00    -0.218 NA
ATOM     13  C   UNL     1     -33.506   7.415   7.088  1.00  0.00    +0.150 A 
ATOM     14  C   UNL     1     -31.704   6.598   8.069  1.00  0.00    +0.168 A 
ATOM     15  C   UNL     1     -31.483   4.741   9.295  1.00  0.00    +0.226 A 
ATOM     16  N   UNL     1     -32.552   8.302   6.813  1.00  0.00    -0.174 NA
ATOM     17  N   UNL     1     -31.429   7.803   7.421  1.00  0.00    -0.215 N 
ATOM     18  N   UNL     1     -30.869   5.819   8.789  1.00  0.00    -0.216 NA
BRANCH  17  19
ATOM     19  C   UNL     1     -30.199   8.524   7.325  1.00  0.00    +0.067 A 
ATOM     20  C   UNL     1     -30.156   9.882   6.986  1.00  0.00    +0.028 A 
ATOM     21  C   UNL     1     -28.990   7.851   7.580  1.00  0.00    +0.028 A 
ATOM     22  C   UNL     1     -28.931  10.552   6.904  1.00  0.00    +0.002 A 
ATOM     23  C   UNL     1     -27.768   8.525   7.495  1.00  0.00    +0.002 A 
ATOM     24  C   UNL     1     -27.739   9.875   7.157  1.00  0.00    +0.000 A 
ENDBRANCH  17  19
ENDBRANCH   1  10
TORSDOF 3
ENDMDL
MODEL 9
REMARK VINA RESULT:    -9.087      6.659      8.857
REMARK INTER + INTRA:         -10.817
REMARK INTER:                 -10.146
REMARK INTRA:                  -0.671
REMARK UNBOUND:                -0.136
REMARK SMILES Brc1cccc(Nc2ncnc3c2cnn3-c2ccccc2)c1
REMARK SMILES IDX 7 1 6 3 2 4 3 5 23 6 4 7 5 8 1 9 8 10 13 11 9 12 14 13 12 14
REMARK SMILES IDX 10 15 15 16 16 17 11 18 17 19 18 20 22 21 19 22 21 23 20 24
REMARK H PARENT 7 2
ROOT
ATOM      1  N   UNL     1     -30.706   1.816   9.929  1.00  0.00    -0.339 N 
ATOM      2  H   UNL     1     -31.164   0.937   9.694  1.00  0.00    +0.168 HD
ENDROOT
BRANCH   1   3
ATOM      3  C   UNL     1     -29.837   1.649  11.028  1.00  0.00    +0.041 A 
ATOM      4  C   UNL     1     -27.616   1.951  11.961  1.00  0.00    +0.020 A 
ATOM      5  C   UNL     1     -28.004   1.315  13.137  1.00  0.00    +0.016 A 
ATOM      6  C   UNL     1     -28.520   2.112  10.911  1.00  0.00    +0.041 A 
ATOM      7  C   UNL     1     -29.304   0.831  13.258  1.00  0.00    +0.003 A 
ATOM      8  C   UNL     1     -30.213   0.992  12.206  1.00  0.00    +0.026 A 
ATOM      9 Br   UNL     1     -25.849   2.599  11.786  1.00  0.00    -0.051 Br
ENDBRANCH   1   3
BRANCH   1  10
ATOM     10  C   UNL     1     -31.645   2.834   9.712  1.00  0.00    +0.144 A 
ATOM     11  C   UNL     1     -33.004   2.759  10.044  1.00  0.00    +0.082 A 
ATOM     12  N   UNL     1     -31.179   3.994   9.194  1.00  0.00    -0.218 NA
ATOM     13  C   UNL     1     -33.873   1.828  10.634  1.00  0.00    +0.150 A 
ATOM     14  C   UNL     1     -33.800   3.863   9.779  1.00  0.00    +0.168 A 
ATOM     15  C   UNL     1     -32.047   4.999   8.982  1.00  0.00    +0.226 A 
ATOM     16  N   UNL     1     -35.127   2.265  10.720  1.00  0.00    -0.174 NA
ATOM     17  N   UNL     1     -35.092   3.530  10.193  1.00  0.00    -0.215 N 
ATOM     18  N   UNL     1     -33.363   5.018   9.232  1.00  0.00    -0.216 NA
BRANCH  17  19
ATOM     19  C   UNL     1     -36.293   4.301  10.133  1.00  0.00    +0.067 A 
ATOM     20  C   UNL     1     -37.324   4.006   9.232  1.00  0.00    +0.028 A 
ATOM     21  C   UNL     1     -36.450   5.392  11.008  1.00  0.00    +0.028 A 
ATOM     22  C   UNL     1     -38.485   4.785   9.207  1.00  0.00    +0.002 A 
ATOM     23  C   UNL     1     -37.612   6.168  10.977  1.00  0.00    +0.002 A 
ATOM     24  C   UNL     1     -38.629   5.864  10.076  1.00  0.00    +0.000 A 
ENDBRANCH  17  19
ENDBRANCH   1  10
TORSDOF 3
ENDMDL
