MODEL 1
REMARK VINA RESULT:    -8.556      0.000      0.000
REMARK INTER + INTRA:         -11.135
REMARK INTER:                 -10.557
REMARK INTRA:                  -0.578
REMARK UNBOUND:                -0.578
REMARK SMILES O=C(O)C(=Cc1cc(Br)c(O)c(Br)c1)c1ccccc1
REMARK SMILES IDX 4 1 5 2 2 3 1 4 3 5 15 7 16 8 20 9 17 10 19 11 18 12 6 13
REMARK SMILES IDX 14 14 7 15 12 16 8 17 10 18 13 19 9 20 11 21
REMARK H PARENT 3 6 11 22
ROOT
ATOM      1  C   UNL     1     -29.821  10.055   6.506  1.00  0.00    +0.067 C 
ATOM      2  C   UNL     1     -29.810   8.707   6.447  1.00  0.00    +0.024 C 
ENDROOT
BRANCH   1   3
ATOM      3  C   UNL     1     -31.027  10.813   6.942  1.00  0.00    +0.336 C 
ATOM      4  O   UNL     1     -31.383  11.050   8.083  1.00  0.00    -0.246 OA
BRANCH   3   5
ATOM      5  O   UNL     1     -31.753  11.252   5.897  1.00  0.00    -0.478 OA
ATOM      6  H   UNL     1     -31.289  12.068   5.618  1.00  0.00    +0.297 HD
ENDBRANCH   3   5
ENDBRANCH   1   3
BRANCH   1   7
ATOM      7  C   UNL     1     -28.573  10.760   6.150  1.00  0.00    -0.011 A 
ATOM      8  C   UNL     1     -28.596  12.103   5.746  1.00  0.00    +0.009 A 
ATOM      9  C   UNL     1     -27.345  10.085   6.201  1.00  0.00    +0.009 A 
ATOM     10  C   UNL     1     -27.412  12.757   5.399  1.00  0.00    +0.001 A 
ATOM     11  C   UNL     1     -26.164  10.742   5.853  1.00  0.00    +0.001 A 
ATOM     12  C   UNL     1     -26.198  12.076   5.451  1.00  0.00    +0.000 A 
ENDBRANCH   1   7
BRANCH   2  13
ATOM     13  C   UNL     1     -30.936   7.815   6.731  1.00  0.00    -0.022 A 
ATOM     14  C   UNL     1     -31.935   7.624   5.771  1.00  0.00    +0.027 A 
ATOM     15  C   UNL     1     -31.015   7.148   7.959  1.00  0.00    +0.027 A 
ATOM     16  C   UNL     1     -33.003   6.768   6.041  1.00  0.00    +0.061 A 
ATOM     17  C   UNL     1     -32.089   6.293   8.225  1.00  0.00    +0.061 A 
ATOM     18  C   UNL     1     -33.086   6.099   7.266  1.00  0.00    +0.143 A 
ATOM     19 Br   UNL     1     -34.339   6.529   4.715  1.00  0.00    -0.047 Br
ATOM     20 Br   UNL     1     -32.145   5.417   9.907  1.00  0.00    -0.047 Br
BRANCH  18  21
ATOM     21  O   UNL     1     -34.133   5.259   7.540  1.00  0.00    -0.506 OA
ATOM     22  H   UNL     1     -33.762   4.392   7.787  1.00  0.00    +0.293 HD
ENDBRANCH  18  21
ENDBRANCH   2  13
TORSDOF 5
ENDMDL
MODEL 2
REMARK VINA RESULT:    -8.548      0.203      2.124
REMARK INTER + INTRA:         -11.126
REMARK INTER:                 -10.524
REMARK INTRA:                  -0.602
REMARK UNBOUND:                -0.578
REMARK SMILES O=C(O)C(=Cc1cc(Br)c(O)c(Br)c1)c1ccccc1
REMARK SMILES IDX 4 1 5 2 2 3 1 4 3 5 15 7 16 8 20 9 17 10 19 11 18 12 6 13
REMARK SMILES IDX 14 14 7 15 12 16 8 17 10 18 13 19 9 20 11 21
REMARK H PARENT 3 6 11 22
ROOT
ATOM      1  C   UNL     1     -29.776   9.901   6.557  1.00  0.00    +0.067 C 
ATOM      2  C   UNL     1     -29.808   8.553   6.503  1.00  0.00    +0.024 C 
ENDROOT
BRANCH   1   3
ATOM      3  C   UNL     1     -30.964  10.700   6.968  1.00  0.00    +0.336 C 
ATOM      4  O   UNL     1     -31.291  11.017   8.098  1.00  0.00    -0.246 OA
BRANCH   3   5
ATOM      5  O   UNL     1     -31.710  11.075   5.912  1.00  0.00    -0.478 OA
ATOM      6  H   UNL     1     -32.231  10.274   5.699  1.00  0.00    +0.297 HD
ENDBRANCH   3   5
ENDBRANCH   1   3
BRANCH   1   7
ATOM      7  C   UNL     1     -28.499  10.563   6.219  1.00  0.00    -0.011 A 
ATOM      8  C   UNL     1     -28.483  11.850   5.662  1.00  0.00    +0.009 A 
ATOM      9  C   UNL     1     -27.284   9.902   6.444  1.00  0.00    +0.009 A 
ATOM     10  C   UNL     1     -27.271  12.462   5.334  1.00  0.00    +0.001 A 
ATOM     11  C   UNL     1     -26.075  10.518   6.116  1.00  0.00    +0.001 A 
ATOM     12  C   UNL     1     -26.069  11.796   5.560  1.00  0.00    +0.000 A 
ENDBRANCH   1   7
BRANCH   2  13
ATOM     13  C   UNL     1     -30.967   7.700   6.771  1.00  0.00    -0.022 A 
ATOM     14  C   UNL     1     -31.082   7.044   8.001  1.00  0.00    +0.027 A 
ATOM     15  C   UNL     1     -31.965   7.540   5.801  1.00  0.00    +0.027 A 
ATOM     16  C   UNL     1     -32.192   6.237   8.256  1.00  0.00    +0.061 A 
ATOM     17  C   UNL     1     -33.072   6.728   6.062  1.00  0.00    +0.061 A 
ATOM     18  C   UNL     1     -33.190   6.075   7.291  1.00  0.00    +0.143 A 
ATOM     19 Br   UNL     1     -32.318   5.365   9.937  1.00  0.00    -0.047 Br
ATOM     20 Br   UNL     1     -34.392   6.547   4.710  1.00  0.00    -0.047 Br
BRANCH  18  21
ATOM     21  O   UNL     1     -34.281   5.282   7.533  1.00  0.00    -0.506 OA
ATOM     22  H   UNL     1     -35.040   5.867   7.712  1.00  0.00    +0.293 HD
ENDBRANCH  18  21
ENDBRANCH   2  13
TORSDOF 5
ENDMDL
MODEL 3
REMARK VINA RESULT:    -8.155      7.012      8.181
REMARK INTER + INTRA:         -10.641
REMARK INTER:                 -10.050
REMARK INTRA:                  -0.591
REMARK UNBOUND:                -0.578
REMARK SMILES O=C(O)C(=Cc1cc(Br)c(O)c(Br)c1)c1ccccc1
REMARK SMILES IDX 4 1 5 2 2 3 1 4 3 5 15 7 16 8 20 9 17 10 19 11 18 12 6 13
REMARK SMILES IDX 14 14 7 15 12 16 8 17 10 18 13 19 9 20 11 21
REMARK H PARENT 3 6 11 22
ROOT
ATOM      1  C   UNL     1     -26.341   4.281   9.466  1.00  0.00    +0.067 C 
ATOM      2  C   UNL     1     -27.180   3.269   9.164  1.00  0.00    +0.024 C 
ENDROOT
BRANCH   1   3
ATOM      3  C   UNL     1     -25.427   4.221  10.640  1.00  0.00    +0.336 C 
ATOM      4  O   UNL     1     -24.238   3.959  10.643  1.00  0.00    -0.246 OA
BRANCH   3   5
ATOM      5  O   UNL     1     -26.066   4.499  11.792  1.00  0.00    -0.478 OA
ATOM      6  H   UNL     1     -25.620   3.926  12.449  1.00  0.00    +0.297 HD
ENDBRANCH   3   5
ENDBRANCH   1   3
BRANCH   1   7
ATOM      7  C   UNL     1     -26.337   5.451   8.563  1.00  0.00    -0.011 A 
ATOM      8  C   UNL     1     -27.484   6.244   8.410  1.00  0.00    +0.009 A 
ATOM      9  C   UNL     1     -25.182   5.775   7.839  1.00  0.00    +0.009 A 
ATOM     10  C   UNL     1     -27.474   7.340   7.545  1.00  0.00    +0.001 A 
ATOM     11  C   UNL     1     -25.176   6.872   6.975  1.00  0.00    +0.001 A 
ATOM     12  C   UNL     1     -26.321   7.652   6.828  1.00  0.00    +0.000 A 
ENDBRANCH   1   7
BRANCH   2  13
ATOM     13  C   UNL     1     -27.365   2.034   9.929  1.00  0.00    -0.022 A 
ATOM     14  C   UNL     1     -26.594   0.906   9.631  1.00  0.00    +0.027 A 
ATOM     15  C   UNL     1     -28.307   1.979  10.963  1.00  0.00    +0.027 A 
ATOM     16  C   UNL     1     -26.766  -0.267  10.367  1.00  0.00    +0.061 A 
ATOM     17  C   UNL     1     -28.477   0.801  11.695  1.00  0.00    +0.061 A 
ATOM     18  C   UNL     1     -27.706  -0.326  11.400  1.00  0.00    +0.143 A 
ATOM     19 Br   UNL     1     -25.702  -1.778   9.938  1.00  0.00    -0.047 Br
ATOM     20 Br   UNL     1     -29.770   0.784  13.084  1.00  0.00    -0.047 Br
BRANCH  18  21
ATOM     21  O   UNL     1     -27.884  -1.475  12.126  1.00  0.00    -0.506 OA
ATOM     22  H   UNL     1     -28.794  -1.468  12.475  1.00  0.00    +0.293 HD
ENDBRANCH  18  21
ENDBRANCH   2  13
TORSDOF 5
ENDMDL
MODEL 4
REMARK VINA RESULT:    -8.096      7.007      8.256
REMARK INTER + INTRA:         -10.568
REMARK INTER:                 -10.013
REMARK INTRA:                  -0.555
REMARK UNBOUND:                -0.578
REMARK SMILES O=C(O)C(=Cc1cc(Br)c(O)c(Br)c1)c1ccccc1
REMARK SMILES IDX 4 1 5 2 2 3 1 4 3 5 15 7 16 8 20 9 17 10 19 11 18 12 6 13
REMARK SMILES IDX 14 14 7 15 12 16 8 17 10 18 13 19 9 20 11 21
REMARK H PARENT 3 6 11 22
ROOT
ATOM      1  C   UNL     1     -26.361   4.253   9.457  1.00  0.00    +0.067 C 
ATOM      2  C   UNL     1     -27.182   3.238   9.117  1.00  0.00    +0.024 C 
ENDROOT
BRANCH   1   3
ATOM      3  C   UNL     1     -25.469   4.178  10.648  1.00  0.00    +0.336 C 
ATOM      4  O   UNL     1     -24.267   3.980  10.664  1.00  0.00    -0.246 OA
BRANCH   3   5
ATOM      5  O   UNL     1     -26.145   4.359  11.797  1.00  0.00    -0.478 OA
ATOM      6  H   UNL     1     -25.776   5.192  12.156  1.00  0.00    +0.297 HD
ENDBRANCH   3   5
ENDBRANCH   1   3
BRANCH   1   7
ATOM      7  C   UNL     1     -26.354   5.443   8.581  1.00  0.00    -0.011 A 
ATOM      8  C   UNL     1     -25.193   5.820   7.890  1.00  0.00    +0.009 A 
ATOM      9  C   UNL     1     -27.513   6.218   8.440  1.00  0.00    +0.009 A 
ATOM     10  C   UNL     1     -25.193   6.953   7.075  1.00  0.00    +0.001 A 
ATOM     11  C   UNL     1     -27.510   7.351   7.624  1.00  0.00    +0.001 A 
ATOM     12  C   UNL     1     -26.350   7.718   6.943  1.00  0.00    +0.000 A 
ENDBRANCH   1   7
BRANCH   2  13
ATOM     13  C   UNL     1     -27.366   1.985   9.852  1.00  0.00    -0.022 A 
ATOM     14  C   UNL     1     -28.350   1.893  10.841  1.00  0.00    +0.027 A 
ATOM     15  C   UNL     1     -26.562   0.875   9.565  1.00  0.00    +0.027 A 
ATOM     16  C   UNL     1     -28.528   0.695  11.534  1.00  0.00    +0.061 A 
ATOM     17  C   UNL     1     -26.744  -0.321  10.264  1.00  0.00    +0.061 A 
ATOM     18  C   UNL     1     -27.728  -0.416  11.251  1.00  0.00    +0.143 A 
ATOM     19 Br   UNL     1     -29.875   0.605  12.868  1.00  0.00    -0.047 Br
ATOM     20 Br   UNL     1     -25.625  -1.793   9.835  1.00  0.00    -0.047 Br
BRANCH  18  21
ATOM     21  O   UNL     1     -27.895  -1.595  11.930  1.00  0.00    -0.506 OA
ATOM     22  H   UNL     1     -28.774  -1.947  11.702  1.00  0.00    +0.293 HD
ENDBRANCH  18  21
ENDBRANCH   2  13
TORSDOF 5
ENDMDL
MODEL 5
REMARK VINA RESULT:    -8.066      3.247      6.789
REMARK INTER + INTRA:         -10.531
REMARK INTER:                 -10.444
REMARK INTRA:                  -0.086
REMARK UNBOUND:                -0.578
REMARK SMILES O=C(O)C(=Cc1cc(Br)c(O)c(Br)c1)c1ccccc1
REMARK SMILES IDX 4 1 5 2 2 3 1 4 3 5 15 7 16 8 20 9 17 10 19 11 18 12 6 13
REMARK SMILES IDX 14 14 7 15 12 16 8 17 10 18 13 19 9 20 11 21
REMARK H PARENT 3 6 11 22
ROOT
ATOM      1  C   UNL     1     -31.444   7.274   7.248  1.00  0.00    +0.067 C 
ATOM      2  C   UNL     1     -30.251   7.530   7.824  1.00  0.00    +0.024 C 
ENDROOT
BRANCH   1   3
ATOM      3  C   UNL     1     -31.822   7.855   5.930  1.00  0.00    +0.336 C 
ATOM      4  O   UNL     1     -31.613   7.388   4.825  1.00  0.00    -0.246 OA
BRANCH   3   5
ATOM      5  O   UNL     1     -32.464   9.031   6.062  1.00  0.00    -0.478 OA
ATOM      6  H   UNL     1     -31.908   9.529   6.695  1.00  0.00    +0.297 HD
ENDBRANCH   3   5
ENDBRANCH   1   3
BRANCH   1   7
ATOM      7  C   UNL     1     -32.361   6.362   7.964  1.00  0.00    -0.011 A 
ATOM      8  C   UNL     1     -33.667   6.147   7.500  1.00  0.00    +0.009 A 
ATOM      9  C   UNL     1     -31.934   5.708   9.128  1.00  0.00    +0.009 A 
ATOM     10  C   UNL     1     -34.530   5.294   8.190  1.00  0.00    +0.001 A 
ATOM     11  C   UNL     1     -32.800   4.855   9.815  1.00  0.00    +0.001 A 
ATOM     12  C   UNL     1     -34.096   4.650   9.347  1.00  0.00    +0.000 A 
ENDBRANCH   1   7
BRANCH   2  13
ATOM     13  C   UNL     1     -29.209   8.418   7.306  1.00  0.00    -0.022 A 
ATOM     14  C   UNL     1     -29.537   9.711   6.887  1.00  0.00    +0.027 A 
ATOM     15  C   UNL     1     -27.881   7.979   7.231  1.00  0.00    +0.027 A 
ATOM     16  C   UNL     1     -28.540  10.558   6.401  1.00  0.00    +0.061 A 
ATOM     17  C   UNL     1     -26.888   8.831   6.741  1.00  0.00    +0.061 A 
ATOM     18  C   UNL     1     -27.214  10.124   6.325  1.00  0.00    +0.143 A 
ATOM     19 Br   UNL     1     -29.021  12.308   5.845  1.00  0.00    -0.047 Br
ATOM     20 Br   UNL     1     -25.106   8.182   6.660  1.00  0.00    -0.047 Br
BRANCH  18  21
ATOM     21  O   UNL     1     -26.229  10.948   5.845  1.00  0.00    -0.506 OA
ATOM     22  H   UNL     1     -25.556  11.045   6.544  1.00  0.00    +0.293 HD
ENDBRANCH  18  21
ENDBRANCH   2  13
TORSDOF 5
ENDMDL
MODEL 6
REMARK VINA RESULT:    -8.023      3.237      7.028
REMARK INTER + INTRA:         -10.478
REMARK INTER:                 -10.394
REMARK INTRA:                  -0.084
REMARK UNBOUND:                -0.578
REMARK SMILES O=C(O)C(=Cc1cc(Br)c(O)c(Br)c1)c1ccccc1
REMARK SMILES IDX 4 1 5 2 2 3 1 4 3 5 15 7 16 8 20 9 17 10 19 11 18 12 6 13
REMARK SMILES IDX 14 14 7 15 12 16 8 17 10 18 13 19 9 20 11 21
REMARK H PARENT 3 6 11 22
ROOT
ATOM      1  C   UNL     1     -31.499   7.204   7.300  1.00  0.00    +0.067 C 
ATOM      2  C   UNL     1     -30.306   7.462   7.876  1.00  0.00    +0.024 C 
ENDROOT
BRANCH   1   3
ATOM      3  C   UNL     1     -31.881   7.789   5.985  1.00  0.00    +0.336 C 
ATOM      4  O   UNL     1     -31.677   7.323   4.878  1.00  0.00    -0.246 OA
BRANCH   3   5
ATOM      5  O   UNL     1     -32.517   8.967   6.121  1.00  0.00    -0.478 OA
ATOM      6  H   UNL     1     -32.551   9.320   5.209  1.00  0.00    +0.297 HD
ENDBRANCH   3   5
ENDBRANCH   1   3
BRANCH   1   7
ATOM      7  C   UNL     1     -32.411   6.286   8.013  1.00  0.00    -0.011 A 
ATOM      8  C   UNL     1     -31.988   5.600   9.161  1.00  0.00    +0.009 A 
ATOM      9  C   UNL     1     -33.714   6.081   7.538  1.00  0.00    +0.009 A 
ATOM     10  C   UNL     1     -32.854   4.725   9.819  1.00  0.00    +0.001 A 
ATOM     11  C   UNL     1     -34.577   5.206   8.199  1.00  0.00    +0.001 A 
ATOM     12  C   UNL     1     -34.147   4.527   9.338  1.00  0.00    +0.000 A 
ENDBRANCH   1   7
BRANCH   2  13
ATOM     13  C   UNL     1     -29.267   8.356   7.360  1.00  0.00    -0.022 A 
ATOM     14  C   UNL     1     -27.943   7.913   7.278  1.00  0.00    +0.027 A 
ATOM     15  C   UNL     1     -29.595   9.652   6.944  1.00  0.00    +0.027 A 
ATOM     16  C   UNL     1     -26.956   8.764   6.779  1.00  0.00    +0.061 A 
ATOM     17  C   UNL     1     -28.602  10.501   6.447  1.00  0.00    +0.061 A 
ATOM     18  C   UNL     1     -27.279  10.059   6.362  1.00  0.00    +0.143 A 
ATOM     19 Br   UNL     1     -25.171   8.131   6.678  1.00  0.00    -0.047 Br
ATOM     20 Br   UNL     1     -29.103  12.247   5.900  1.00  0.00    -0.047 Br
BRANCH  18  21
ATOM     21  O   UNL     1     -26.315  10.903   5.874  1.00  0.00    -0.506 OA
ATOM     22  H   UNL     1     -26.077  10.596   4.980  1.00  0.00    +0.293 HD
ENDBRANCH  18  21
ENDBRANCH   2  13
TORSDOF 5
ENDMDL
MODEL 7
REMARK VINA RESULT:    -7.989      2.981      4.671
REMARK INTER + INTRA:         -10.436
REMARK INTER:                 -10.279
REMARK INTRA:                  -0.157
REMARK UNBOUND:                -0.578
REMARK SMILES O=C(O)C(=Cc1cc(Br)c(O)c(Br)c1)c1ccccc1
REMARK SMILES IDX 4 1 5 2 2 3 1 4 3 5 15 7 16 8 20 9 17 10 19 11 18 12 6 13
REMARK SMILES IDX 14 14 7 15 12 16 8 17 10 18 13 19 9 20 11 21
REMARK H PARENT 3 6 11 22
ROOT
ATOM      1  C   UNL     1     -32.098   7.017   7.799  1.00  0.00    +0.067 C 
ATOM      2  C   UNL     1     -31.714   6.250   8.840  1.00  0.00    +0.024 C 
ENDROOT
BRANCH   1   3
ATOM      3  C   UNL     1     -33.319   6.709   7.003  1.00  0.00    +0.336 C 
ATOM      4  O   UNL     1     -33.411   5.970   6.040  1.00  0.00    -0.246 OA
BRANCH   3   5
ATOM      5  O   UNL     1     -34.401   7.364   7.465  1.00  0.00    -0.478 OA
ATOM      6  H   UNL     1     -34.975   6.650   7.810  1.00  0.00    +0.297 HD
ENDBRANCH   3   5
ENDBRANCH   1   3
BRANCH   1   7
ATOM      7  C   UNL     1     -31.274   8.204   7.491  1.00  0.00    -0.011 A 
ATOM      8  C   UNL     1     -29.891   8.086   7.288  1.00  0.00    +0.009 A 
ATOM      9  C   UNL     1     -31.870   9.470   7.409  1.00  0.00    +0.009 A 
ATOM     10  C   UNL     1     -29.120   9.216   7.010  1.00  0.00    +0.001 A 
ATOM     11  C   UNL     1     -31.095  10.598   7.131  1.00  0.00    +0.001 A 
ATOM     12  C   UNL     1     -29.721  10.470   6.933  1.00  0.00    +0.000 A 
ENDBRANCH   1   7
BRANCH   2  13
ATOM     13  C   UNL     1     -32.364   5.022   9.302  1.00  0.00    -0.022 A 
ATOM     14  C   UNL     1     -33.720   5.036   9.645  1.00  0.00    +0.027 A 
ATOM     15  C   UNL     1     -31.636   3.830   9.398  1.00  0.00    +0.027 A 
ATOM     16  C   UNL     1     -34.340   3.863  10.077  1.00  0.00    +0.061 A 
ATOM     17  C   UNL     1     -32.261   2.659   9.834  1.00  0.00    +0.061 A 
ATOM     18  C   UNL     1     -33.616   2.671  10.174  1.00  0.00    +0.143 A 
ATOM     19 Br   UNL     1     -36.181   3.918  10.532  1.00  0.00    -0.047 Br
ATOM     20 Br   UNL     1     -31.223   1.074   9.946  1.00  0.00    -0.047 Br
BRANCH  18  21
ATOM     21  O   UNL     1     -34.216   1.515  10.601  1.00  0.00    -0.506 OA
ATOM     22  H   UNL     1     -34.956   1.324   9.997  1.00  0.00    +0.293 HD
ENDBRANCH  18  21
ENDBRANCH   2  13
TORSDOF 5
ENDMDL
MODEL 8
REMARK VINA RESULT:    -7.973      2.961      4.794
REMARK INTER + INTRA:         -10.416
REMARK INTER:                 -10.217
REMARK INTRA:                  -0.199
REMARK UNBOUND:                -0.578
REMARK SMILES O=C(O)C(=Cc1cc(Br)c(O)c(Br)c1)c1ccccc1
REMARK SMILES IDX 4 1 5 2 2 3 1 4 3 5 15 7 16 8 20 9 17 10 19 11 18 12 6 13
REMARK SMILES IDX 14 14 7 15 12 16 8 17 10 18 13 19 9 20 11 21
REMARK H PARENT 3 6 11 22
ROOT
ATOM      1  C   UNL     1     -32.102   7.034   7.749  1.00  0.00    +0.067 C 
ATOM      2  C   UNL     1     -31.764   6.276   8.813  1.00  0.00    +0.024 C 
ENDROOT
BRANCH   1   3
ATOM      3  C   UNL     1     -33.301   6.734   6.919  1.00  0.00    +0.336 C 
ATOM      4  O   UNL     1     -33.368   6.001   5.947  1.00  0.00    -0.246 OA
BRANCH   3   5
ATOM      5  O   UNL     1     -34.395   7.386   7.356  1.00  0.00    -0.478 OA
ATOM      6  H   UNL     1     -34.216   7.527   8.308  1.00  0.00    +0.297 HD
ENDBRANCH   3   5
ENDBRANCH   1   3
BRANCH   1   7
ATOM      7  C   UNL     1     -31.250   8.203   7.451  1.00  0.00    -0.011 A 
ATOM      8  C   UNL     1     -29.864   8.060   7.288  1.00  0.00    +0.009 A 
ATOM      9  C   UNL     1     -31.821   9.479   7.339  1.00  0.00    +0.009 A 
ATOM     10  C   UNL     1     -29.066   9.173   7.020  1.00  0.00    +0.001 A 
ATOM     11  C   UNL     1     -31.019  10.589   7.070  1.00  0.00    +0.001 A 
ATOM     12  C   UNL     1     -29.643  10.437   6.912  1.00  0.00    +0.000 A 
ENDBRANCH   1   7
BRANCH   2  13
ATOM     13  C   UNL     1     -32.449   5.065   9.271  1.00  0.00    -0.022 A 
ATOM     14  C   UNL     1     -31.745   3.862   9.375  1.00  0.00    +0.027 A 
ATOM     15  C   UNL     1     -33.807   5.108   9.610  1.00  0.00    +0.027 A 
ATOM     16  C   UNL     1     -32.397   2.711   9.819  1.00  0.00    +0.061 A 
ATOM     17  C   UNL     1     -34.456   3.952  10.051  1.00  0.00    +0.061 A 
ATOM     18  C   UNL     1     -33.753   2.749  10.158  1.00  0.00    +0.143 A 
ATOM     19 Br   UNL     1     -31.411   1.096   9.951  1.00  0.00    -0.047 Br
ATOM     20 Br   UNL     1     -36.297   4.069  10.494  1.00  0.00    -0.047 Br
BRANCH  18  21
ATOM     21  O   UNL     1     -34.403   1.623  10.592  1.00  0.00    -0.506 OA
ATOM     22  H   UNL     1     -35.167   1.908  11.125  1.00  0.00    +0.293 HD
ENDBRANCH  18  21
ENDBRANCH   2  13
TORSDOF 5
ENDMDL
MODEL 9
REMARK VINA RESULT:    -7.894      3.048      7.387
REMARK INTER + INTRA:         -10.318
REMARK INTER:                  -9.982
REMARK INTRA:                  -0.336
REMARK UNBOUND:                -0.578
REMARK SMILES O=C(O)C(=Cc1cc(Br)c(O)c(Br)c1)c1ccccc1
REMARK SMILES IDX 4 1 5 2 2 3 1 4 3 5 15 7 16 8 20 9 17 10 19 11 18 12 6 13
REMARK SMILES IDX 14 14 7 15 12 16 8 17 10 18 13 19 9 20 11 21
REMARK H PARENT 3 6 11 22
ROOT
ATOM      1  C   UNL     1     -33.330   6.345   6.934  1.00  0.00    +0.067 C 
ATOM      2  C   UNL     1     -32.485   6.855   7.853  1.00  0.00    +0.024 C 
ENDROOT
BRANCH   1   3
ATOM      3  C   UNL     1     -33.172   6.624   5.479  1.00  0.00    +0.336 C 
ATOM      4  O   UNL     1     -32.139   6.641   4.834  1.00  0.00    -0.246 OA
BRANCH   3   5
ATOM      5  O   UNL     1     -34.351   6.878   4.882  1.00  0.00    -0.478 OA
ATOM      6  H   UNL     1     -34.548   7.802   5.140  1.00  0.00    +0.297 HD
ENDBRANCH   3   5
ENDBRANCH   1   3
BRANCH   1   7
ATOM      7  C   UNL     1     -34.413   5.466   7.422  1.00  0.00    -0.011 A 
ATOM      8  C   UNL     1     -35.394   5.952   8.298  1.00  0.00    +0.009 A 
ATOM      9  C   UNL     1     -34.462   4.124   7.019  1.00  0.00    +0.009 A 
ATOM     10  C   UNL     1     -36.405   5.109   8.763  1.00  0.00    +0.001 A 
ATOM     11  C   UNL     1     -35.475   3.285   7.487  1.00  0.00    +0.001 A 
ATOM     12  C   UNL     1     -36.444   3.777   8.359  1.00  0.00    +0.000 A 
ENDBRANCH   1   7
BRANCH   2  13
ATOM     13  C   UNL     1     -31.365   7.764   7.595  1.00  0.00    -0.022 A 
ATOM     14  C   UNL     1     -30.051   7.296   7.687  1.00  0.00    +0.027 A 
ATOM     15  C   UNL     1     -31.606   9.100   7.253  1.00  0.00    +0.027 A 
ATOM     16  C   UNL     1     -28.986   8.161   7.433  1.00  0.00    +0.061 A 
ATOM     17  C   UNL     1     -30.535   9.963   7.003  1.00  0.00    +0.061 A 
ATOM     18  C   UNL     1     -29.222   9.496   7.091  1.00  0.00    +0.143 A 
ATOM     19 Br   UNL     1     -27.215   7.492   7.564  1.00  0.00    -0.047 Br
ATOM     20 Br   UNL     1     -30.921  11.764   6.545  1.00  0.00    -0.047 Br
BRANCH  18  21
ATOM     21  O   UNL     1     -28.181  10.354   6.844  1.00  0.00    -0.506 OA
ATOM     22  H   UNL     1     -28.370  11.191   7.306  1.00  0.00    +0.293 HD
ENDBRANCH  18  21
ENDBRANCH   2  13
TORSDOF 5
ENDMDL
