REMARK SMILES NC(=O)Cc1c[nH]c2ccccc12
REMARK SMILES IDX 4 1 2 2 1 3 3 4 5 7 6 8 13 9 7 10 8 11 12 12 9 13 11 14
REMARK SMILES IDX 10 15
REMARK H PARENT 1 5 1 6 7 16
ROOT
ATOM      1  C   UNL     1      -1.428   0.024   1.781  1.00  0.00    +0.137 C 
ENDROOT
BRANCH   1   2
ATOM      2  C   UNL     1      -2.792   0.157   1.124  1.00  0.00    +0.221 C 
ATOM      3  N   UNL     1      -2.826   0.731  -0.116  1.00  0.00    -0.369 N 
ATOM      4  O   UNL     1      -3.838  -0.157   1.686  1.00  0.00    -0.275 OA
ATOM      5  H   UNL     1      -3.726   0.718  -0.579  1.00  0.00    +0.159 HD
ATOM      6  H   UNL     1      -2.006   0.697  -0.709  1.00  0.00    +0.159 HD
ENDBRANCH   1   2
BRANCH   1   7
ATOM      7  C   UNL     1      -0.399  -0.587   0.881  1.00  0.00    -0.013 A 
ATOM      8  C   UNL     1      -0.210  -1.937   0.652  1.00  0.00    +0.087 A 
ATOM      9  C   UNL     1       0.577   0.107   0.093  1.00  0.00    +0.003 A 
ATOM     10  N   UNL     1       0.823  -2.084  -0.233  1.00  0.00    -0.361 N 
ATOM     11  C   UNL     1       1.317  -0.853  -0.597  1.00  0.00    +0.046 A 
ATOM     12  C   UNL     1       0.893   1.468  -0.104  1.00  0.00    +0.010 A 
ATOM     13  C   UNL     1       2.356  -0.523  -1.475  1.00  0.00    +0.026 A 
ATOM     14  C   UNL     1       1.929   1.815  -0.978  1.00  0.00    +0.001 A 
ATOM     15  C   UNL     1       2.647   0.832  -1.653  1.00  0.00    +0.002 A 
ATOM     16  H   UNL     1       1.177  -2.967  -0.575  1.00  0.00    +0.166 HD
ENDBRANCH   1   7
TORSDOF 2
