MODEL 1
REMARK VINA RESULT:    -8.853      0.000      0.000
REMARK INTER + INTRA:         -12.640
REMARK INTER:                 -12.476
REMARK INTRA:                  -0.164
REMARK UNBOUND:                -0.164
REMARK SMILES CCOC(=O)CCC(=O)c1ccc(OC)c2ccccc12
REMARK SMILES IDX 6 1 4 2 5 3 3 4 2 5 1 6 7 7 8 8 9 9 10 10 21 11 11 12 20 13
REMARK SMILES IDX 16 14 12 15 19 16 17 17 13 18 18 19 14 20 15 21
REMARK H PARENT
ROOT
ATOM      1  C   UNL     1     -25.581   6.059   7.114  1.00  0.00    +0.131 C 
ENDROOT
BRANCH   1   2
ATOM      2  C   UNL     1     -26.027   5.476   8.428  1.00  0.00    +0.306 C 
ATOM      3  O   UNL     1     -27.182   5.490   8.828  1.00  0.00    -0.252 OA
BRANCH   2   4
ATOM      4  O   UNL     1     -24.959   4.990   9.115  1.00  0.00    -0.466 OA
BRANCH   4   5
ATOM      5  C   UNL     1     -25.258   4.341  10.360  1.00  0.00    +0.229 C 
ATOM      6  C   UNL     1     -24.143   3.376  10.729  1.00  0.00    +0.049 C 
ENDBRANCH   4   5
ENDBRANCH   2   4
ENDBRANCH   1   2
BRANCH   1   7
ATOM      7  C   UNL     1     -25.439   7.571   7.230  1.00  0.00    +0.093 C 
BRANCH   7   8
ATOM      8  C   UNL     1     -26.191   8.304   6.136  1.00  0.00    +0.164 C 
ATOM      9  O   UNL     1     -25.741   8.487   5.009  1.00  0.00    -0.294 OA
BRANCH   8  10
ATOM     10  C   UNL     1     -27.470   8.940   6.516  1.00  0.00    +0.026 A 
ATOM     11  C   UNL     1     -27.784  10.269   6.156  1.00  0.00    -0.004 A 
ATOM     12  C   UNL     1     -28.371   8.134   7.219  1.00  0.00    +0.016 A 
ATOM     13  C   UNL     1     -26.876  11.131   5.497  1.00  0.00    +0.009 A 
ATOM     14  C   UNL     1     -29.075  10.763   6.485  1.00  0.00    +0.024 A 
ATOM     15  C   UNL     1     -29.628   8.629   7.552  1.00  0.00    +0.048 A 
ATOM     16  C   UNL     1     -27.230  12.431   5.137  1.00  0.00    +0.001 A 
ATOM     17  C   UNL     1     -29.404  12.084   6.105  1.00  0.00    +0.012 A 
ATOM     18  C   UNL     1     -29.991   9.931   7.187  1.00  0.00    +0.126 A 
ATOM     19  C   UNL     1     -28.498  12.906   5.436  1.00  0.00    +0.001 A 
BRANCH  18  20
ATOM     20  O   UNL     1     -31.222  10.483   7.458  1.00  0.00    -0.496 OA
ATOM     21  C   UNL     1     -32.329   9.600   7.583  1.00  0.00    +0.278 C 
ENDBRANCH  18  20
ENDBRANCH   8  10
ENDBRANCH   7   8
ENDBRANCH   1   7
TORSDOF 7
ENDMDL
MODEL 2
REMARK VINA RESULT:    -8.528      2.630      5.370
REMARK INTER + INTRA:         -12.181
REMARK INTER:                 -11.723
REMARK INTRA:                  -0.458
REMARK UNBOUND:                -0.164
REMARK SMILES CCOC(=O)CCC(=O)c1ccc(OC)c2ccccc12
REMARK SMILES IDX 6 1 4 2 5 3 3 4 2 5 1 6 7 7 8 8 9 9 10 10 21 11 11 12 20 13
REMARK SMILES IDX 16 14 12 15 19 16 17 17 13 18 18 19 14 20 15 21
REMARK H PARENT
ROOT
ATOM      1  C   UNL     1     -32.774   8.375   7.313  1.00  0.00    +0.131 C 
ENDROOT
BRANCH   1   2
ATOM      2  C   UNL     1     -32.943   6.954   6.847  1.00  0.00    +0.306 C 
ATOM      3  O   UNL     1     -32.661   6.563   5.724  1.00  0.00    -0.252 OA
BRANCH   2   4
ATOM      4  O   UNL     1     -33.499   6.198   7.830  1.00  0.00    -0.466 OA
BRANCH   4   5
ATOM      5  C   UNL     1     -32.640   5.212   8.424  1.00  0.00    +0.229 C 
ATOM      6  C   UNL     1     -31.367   5.865   8.934  1.00  0.00    +0.049 C 
ENDBRANCH   4   5
ENDBRANCH   2   4
ENDBRANCH   1   2
BRANCH   1   7
ATOM      7  C   UNL     1     -31.774   9.105   6.425  1.00  0.00    +0.093 C 
BRANCH   7   8
ATOM      8  C   UNL     1     -30.786   9.928   7.229  1.00  0.00    +0.164 C 
ATOM      9  O   UNL     1     -31.120  10.779   8.047  1.00  0.00    -0.294 OA
BRANCH   8  10
ATOM     10  C   UNL     1     -29.357   9.774   6.888  1.00  0.00    +0.026 A 
ATOM     11  C   UNL     1     -28.616  10.807   6.271  1.00  0.00    -0.004 A 
ATOM     12  C   UNL     1     -28.766   8.559   7.250  1.00  0.00    +0.016 A 
ATOM     13  C   UNL     1     -29.193  12.024   5.838  1.00  0.00    +0.009 A 
ATOM     14  C   UNL     1     -27.225  10.601   6.067  1.00  0.00    +0.024 A 
ATOM     15  C   UNL     1     -27.406   8.359   7.033  1.00  0.00    +0.048 A 
ATOM     16  C   UNL     1     -28.425  13.031   5.254  1.00  0.00    +0.001 A 
ATOM     17  C   UNL     1     -26.475  11.641   5.472  1.00  0.00    +0.012 A 
ATOM     18  C   UNL     1     -26.630   9.368   6.452  1.00  0.00    +0.126 A 
ATOM     19  C   UNL     1     -27.063  12.842   5.075  1.00  0.00    +0.001 A 
BRANCH  18  20
ATOM     20  O   UNL     1     -25.277   9.255   6.228  1.00  0.00    -0.496 OA
ATOM     21  C   UNL     1     -24.605   8.136   6.789  1.00  0.00    +0.278 C 
ENDBRANCH  18  20
ENDBRANCH   8  10
ENDBRANCH   7   8
ENDBRANCH   1   7
TORSDOF 7
ENDMDL
MODEL 3
REMARK VINA RESULT:    -8.178      1.642      3.185
REMARK INTER + INTRA:         -11.689
REMARK INTER:                 -11.801
REMARK INTRA:                   0.112
REMARK UNBOUND:                -0.164
REMARK SMILES CCOC(=O)CCC(=O)c1ccc(OC)c2ccccc12
REMARK SMILES IDX 6 1 4 2 5 3 3 4 2 5 1 6 7 7 8 8 9 9 10 10 21 11 11 12 20 13
REMARK SMILES IDX 16 14 12 15 19 16 17 17 13 18 18 19 14 20 15 21
REMARK H PARENT
ROOT
ATOM      1  C   UNL     1     -25.447   5.514   8.140  1.00  0.00    +0.131 C 
ENDROOT
BRANCH   1   2
ATOM      2  C   UNL     1     -26.437   4.522   8.688  1.00  0.00    +0.306 C 
ATOM      3  O   UNL     1     -27.632   4.746   8.818  1.00  0.00    -0.252 OA
BRANCH   2   4
ATOM      4  O   UNL     1     -25.802   3.379   9.061  1.00  0.00    -0.466 OA
BRANCH   4   5
ATOM      5  C   UNL     1     -26.597   2.429   9.788  1.00  0.00    +0.229 C 
ATOM      6  C   UNL     1     -26.216   1.013   9.390  1.00  0.00    +0.049 C 
ENDBRANCH   4   5
ENDBRANCH   2   4
ENDBRANCH   1   2
BRANCH   1   7
ATOM      7  C   UNL     1     -26.142   6.481   7.190  1.00  0.00    +0.093 C 
BRANCH   7   8
ATOM      8  C   UNL     1     -25.521   7.864   7.223  1.00  0.00    +0.164 C 
ATOM      9  O   UNL     1     -24.442   8.110   7.751  1.00  0.00    -0.294 OA
BRANCH   8  10
ATOM     10  C   UNL     1     -26.344   8.978   6.706  1.00  0.00    +0.026 A 
ATOM     11  C   UNL     1     -27.746   9.019   6.880  1.00  0.00    -0.004 A 
ATOM     12  C   UNL     1     -25.650  10.011   6.069  1.00  0.00    +0.016 A 
ATOM     13  C   UNL     1     -28.487   7.966   7.465  1.00  0.00    +0.009 A 
ATOM     14  C   UNL     1     -28.440  10.174   6.431  1.00  0.00    +0.024 A 
ATOM     15  C   UNL     1     -26.340  11.133   5.619  1.00  0.00    +0.048 A 
ATOM     16  C   UNL     1     -29.868   8.052   7.641  1.00  0.00    +0.001 A 
ATOM     17  C   UNL     1     -29.840  10.231   6.625  1.00  0.00    +0.012 A 
ATOM     18  C   UNL     1     -27.724  11.227   5.799  1.00  0.00    +0.126 A 
ATOM     19  C   UNL     1     -30.544   9.189   7.226  1.00  0.00    +0.001 A 
BRANCH  18  20
ATOM     20  O   UNL     1     -28.471  12.313   5.403  1.00  0.00    -0.496 OA
ATOM     21  C   UNL     1     -27.824  13.577   5.349  1.00  0.00    +0.278 C 
ENDBRANCH  18  20
ENDBRANCH   8  10
ENDBRANCH   7   8
ENDBRANCH   1   7
TORSDOF 7
ENDMDL
MODEL 4
REMARK VINA RESULT:    -8.165      2.955      6.080
REMARK INTER + INTRA:         -11.671
REMARK INTER:                 -11.261
REMARK INTRA:                  -0.410
REMARK UNBOUND:                -0.164
REMARK SMILES CCOC(=O)CCC(=O)c1ccc(OC)c2ccccc12
REMARK SMILES IDX 6 1 4 2 5 3 3 4 2 5 1 6 7 7 8 8 9 9 10 10 21 11 11 12 20 13
REMARK SMILES IDX 16 14 12 15 19 16 17 17 13 18 18 19 14 20 15 21
REMARK H PARENT
ROOT
ATOM      1  C   UNL     1     -33.084   7.122   7.172  1.00  0.00    +0.131 C 
ENDROOT
BRANCH   1   2
ATOM      2  C   UNL     1     -32.605   6.092   8.159  1.00  0.00    +0.306 C 
ATOM      3  O   UNL     1     -31.432   5.915   8.451  1.00  0.00    -0.252 OA
BRANCH   2   4
ATOM      4  O   UNL     1     -33.655   5.365   8.628  1.00  0.00    -0.466 OA
BRANCH   4   5
ATOM      5  C   UNL     1     -34.906   5.565   7.952  1.00  0.00    +0.229 C 
ATOM      6  C   UNL     1     -36.062   5.329   8.909  1.00  0.00    +0.049 C 
ENDBRANCH   4   5
ENDBRANCH   2   4
ENDBRANCH   1   2
BRANCH   1   7
ATOM      7  C   UNL     1     -31.902   7.911   6.620  1.00  0.00    +0.093 C 
BRANCH   7   8
ATOM      8  C   UNL     1     -31.737   9.252   7.308  1.00  0.00    +0.164 C 
ATOM      9  O   UNL     1     -32.558   9.719   8.090  1.00  0.00    -0.294 OA
BRANCH   8  10
ATOM     10  C   UNL     1     -30.585  10.078   6.890  1.00  0.00    +0.026 A 
ATOM     11  C   UNL     1     -29.260   9.586   6.912  1.00  0.00    -0.004 A 
ATOM     12  C   UNL     1     -30.885  11.364   6.430  1.00  0.00    +0.016 A 
ATOM     13  C   UNL     1     -28.913   8.314   7.425  1.00  0.00    +0.009 A 
ATOM     14  C   UNL     1     -28.229  10.421   6.403  1.00  0.00    +0.024 A 
ATOM     15  C   UNL     1     -29.868  12.181   5.947  1.00  0.00    +0.048 A 
ATOM     16  C   UNL     1     -27.597   7.853   7.409  1.00  0.00    +0.001 A 
ATOM     17  C   UNL     1     -26.906   9.924   6.400  1.00  0.00    +0.012 A 
ATOM     18  C   UNL     1     -28.547  11.721   5.923  1.00  0.00    +0.126 A 
ATOM     19  C   UNL     1     -26.593   8.657   6.891  1.00  0.00    +0.001 A 
BRANCH  18  20
ATOM     20  O   UNL     1     -27.491  12.460   5.438  1.00  0.00    -0.496 OA
ATOM     21  C   UNL     1     -27.682  13.859   5.277  1.00  0.00    +0.278 C 
ENDBRANCH  18  20
ENDBRANCH   8  10
ENDBRANCH   7   8
ENDBRANCH   1   7
TORSDOF 7
ENDMDL
MODEL 5
REMARK VINA RESULT:    -7.768      5.543      7.661
REMARK INTER + INTRA:         -11.111
REMARK INTER:                 -10.111
REMARK INTRA:                  -1.000
REMARK UNBOUND:                -0.164
REMARK SMILES CCOC(=O)CCC(=O)c1ccc(OC)c2ccccc12
REMARK SMILES IDX 6 1 4 2 5 3 3 4 2 5 1 6 7 7 8 8 9 9 10 10 21 11 11 12 20 13
REMARK SMILES IDX 16 14 12 15 19 16 17 17 13 18 18 19 14 20 15 21
REMARK H PARENT
ROOT
ATOM      1  C   UNL     1     -35.327   2.147   9.070  1.00  0.00    +0.131 C 
ENDROOT
BRANCH   1   2
ATOM      2  C   UNL     1     -34.325   1.758  10.125  1.00  0.00    +0.306 C 
ATOM      3  O   UNL     1     -34.458   1.992  11.317  1.00  0.00    -0.252 OA
BRANCH   2   4
ATOM      4  O   UNL     1     -33.244   1.164   9.552  1.00  0.00    -0.466 OA
BRANCH   4   5
ATOM      5  C   UNL     1     -32.074   1.064  10.378  1.00  0.00    +0.229 C 
ATOM      6  C   UNL     1     -31.036   2.084   9.941  1.00  0.00    +0.049 C 
ENDBRANCH   4   5
ENDBRANCH   2   4
ENDBRANCH   1   2
BRANCH   1   7
ATOM      7  C   UNL     1     -34.705   3.139   8.095  1.00  0.00    +0.093 C 
BRANCH   7   8
ATOM      8  C   UNL     1     -34.625   4.539   8.673  1.00  0.00    +0.164 C 
ATOM      9  O   UNL     1     -35.537   5.068   9.299  1.00  0.00    -0.294 OA
BRANCH   8  10
ATOM     10  C   UNL     1     -33.426   5.333   8.332  1.00  0.00    +0.026 A 
ATOM     11  C   UNL     1     -33.290   5.990   7.088  1.00  0.00    -0.004 A 
ATOM     12  C   UNL     1     -32.450   5.432   9.328  1.00  0.00    +0.016 A 
ATOM     13  C   UNL     1     -34.228   5.864   6.037  1.00  0.00    +0.009 A 
ATOM     14  C   UNL     1     -32.145   6.807   6.886  1.00  0.00    +0.024 A 
ATOM     15  C   UNL     1     -31.324   6.222   9.117  1.00  0.00    +0.048 A 
ATOM     16  C   UNL     1     -34.071   6.548   4.831  1.00  0.00    +0.001 A 
ATOM     17  C   UNL     1     -32.016   7.486   5.654  1.00  0.00    +0.012 A 
ATOM     18  C   UNL     1     -31.165   6.914   7.912  1.00  0.00    +0.126 A 
ATOM     19  C   UNL     1     -32.967   7.364   4.641  1.00  0.00    +0.001 A 
BRANCH  18  20
ATOM     20  O   UNL     1     -30.093   7.733   7.638  1.00  0.00    -0.496 OA
ATOM     21  C   UNL     1     -28.807   7.303   8.066  1.00  0.00    +0.278 C 
ENDBRANCH  18  20
ENDBRANCH   8  10
ENDBRANCH   7   8
ENDBRANCH   1   7
TORSDOF 7
ENDMDL
MODEL 6
REMARK VINA RESULT:    -7.737      3.664      6.143
REMARK INTER + INTRA:         -11.067
REMARK INTER:                 -10.795
REMARK INTRA:                  -0.273
REMARK UNBOUND:                -0.164
REMARK SMILES CCOC(=O)CCC(=O)c1ccc(OC)c2ccccc12
REMARK SMILES IDX 6 1 4 2 5 3 3 4 2 5 1 6 7 7 8 8 9 9 10 10 21 11 11 12 20 13
REMARK SMILES IDX 16 14 12 15 19 16 17 17 13 18 18 19 14 20 15 21
REMARK H PARENT
ROOT
ATOM      1  C   UNL     1     -32.356   4.991   8.836  1.00  0.00    +0.131 C 
ENDROOT
BRANCH   1   2
ATOM      2  C   UNL     1     -33.643   5.030   9.616  1.00  0.00    +0.306 C 
ATOM      3  O   UNL     1     -33.719   4.858  10.824  1.00  0.00    -0.252 OA
BRANCH   2   4
ATOM      4  O   UNL     1     -34.696   5.227   8.778  1.00  0.00    -0.466 OA
BRANCH   4   5
ATOM      5  C   UNL     1     -35.939   4.632   9.184  1.00  0.00    +0.229 C 
ATOM      6  C   UNL     1     -36.198   3.365   8.387  1.00  0.00    +0.049 C 
ENDBRANCH   4   5
ENDBRANCH   2   4
ENDBRANCH   1   2
BRANCH   1   7
ATOM      7  C   UNL     1     -31.538   6.247   9.108  1.00  0.00    +0.093 C 
BRANCH   7   8
ATOM      8  C   UNL     1     -31.453   7.151   7.893  1.00  0.00    +0.164 C 
ATOM      9  O   UNL     1     -32.353   7.264   7.068  1.00  0.00    -0.294 OA
BRANCH   8  10
ATOM     10  C   UNL     1     -30.155   7.812   7.643  1.00  0.00    +0.026 A 
ATOM     11  C   UNL     1     -30.067   9.138   7.163  1.00  0.00    -0.004 A 
ATOM     12  C   UNL     1     -29.015   7.062   7.950  1.00  0.00    +0.016 A 
ATOM     13  C   UNL     1     -31.196   9.903   6.787  1.00  0.00    +0.009 A 
ATOM     14  C   UNL     1     -28.777   9.720   7.042  1.00  0.00    +0.024 A 
ATOM     15  C   UNL     1     -27.754   7.635   7.815  1.00  0.00    +0.048 A 
ATOM     16  C   UNL     1     -31.071  11.218   6.338  1.00  0.00    +0.001 A 
ATOM     17  C   UNL     1     -28.685  11.055   6.585  1.00  0.00    +0.012 A 
ATOM     18  C   UNL     1     -27.624   8.955   7.371  1.00  0.00    +0.126 A 
ATOM     19  C   UNL     1     -29.815  11.797   6.242  1.00  0.00    +0.001 A 
BRANCH  18  20
ATOM     20  O   UNL     1     -26.414   9.598   7.235  1.00  0.00    -0.496 OA
ATOM     21  C   UNL     1     -25.423   8.978   6.428  1.00  0.00    +0.278 C 
ENDBRANCH  18  20
ENDBRANCH   8  10
ENDBRANCH   7   8
ENDBRANCH   1   7
TORSDOF 7
ENDMDL
MODEL 7
REMARK VINA RESULT:    -7.672      1.987      2.962
REMARK INTER + INTRA:         -10.976
REMARK INTER:                 -11.001
REMARK INTRA:                   0.025
REMARK UNBOUND:                -0.164
REMARK SMILES CCOC(=O)CCC(=O)c1ccc(OC)c2ccccc12
REMARK SMILES IDX 6 1 4 2 5 3 3 4 2 5 1 6 7 7 8 8 9 9 10 10 21 11 11 12 20 13
REMARK SMILES IDX 16 14 12 15 19 16 17 17 13 18 18 19 14 20 15 21
REMARK H PARENT
ROOT
ATOM      1  C   UNL     1     -26.091   3.804   9.470  1.00  0.00    +0.131 C 
ENDROOT
BRANCH   1   2
ATOM      2  C   UNL     1     -26.514   2.362   9.551  1.00  0.00    +0.306 C 
ATOM      3  O   UNL     1     -26.130   1.490   8.785  1.00  0.00    -0.252 OA
BRANCH   2   4
ATOM      4  O   UNL     1     -27.416   2.191  10.555  1.00  0.00    -0.466 OA
BRANCH   4   5
ATOM      5  C   UNL     1     -26.917   2.397  11.885  1.00  0.00    +0.229 C 
ATOM      6  C   UNL     1     -27.988   2.050  12.906  1.00  0.00    +0.049 C 
ENDBRANCH   4   5
ENDBRANCH   2   4
ENDBRANCH   1   2
BRANCH   1   7
ATOM      7  C   UNL     1     -26.982   4.560   8.491  1.00  0.00    +0.093 C 
BRANCH   7   8
ATOM      8  C   UNL     1     -26.473   5.962   8.216  1.00  0.00    +0.164 C 
ATOM      9  O   UNL     1     -25.305   6.301   8.369  1.00  0.00    -0.294 OA
BRANCH   8  10
ATOM     10  C   UNL     1     -27.486   6.985   7.881  1.00  0.00    +0.026 A 
ATOM     11  C   UNL     1     -27.154   8.172   7.189  1.00  0.00    -0.004 A 
ATOM     12  C   UNL     1     -28.802   6.691   8.252  1.00  0.00    +0.016 A 
ATOM     13  C   UNL     1     -25.827   8.528   6.852  1.00  0.00    +0.009 A 
ATOM     14  C   UNL     1     -28.209   9.052   6.830  1.00  0.00    +0.024 A 
ATOM     15  C   UNL     1     -29.828   7.566   7.909  1.00  0.00    +0.048 A 
ATOM     16  C   UNL     1     -25.541   9.698   6.148  1.00  0.00    +0.001 A 
ATOM     17  C   UNL     1     -27.886  10.228   6.116  1.00  0.00    +0.012 A 
ATOM     18  C   UNL     1     -29.547   8.737   7.197  1.00  0.00    +0.126 A 
ATOM     19  C   UNL     1     -26.572  10.546   5.774  1.00  0.00    +0.001 A 
BRANCH  18  20
ATOM     20  O   UNL     1     -30.509   9.638   6.801  1.00  0.00    -0.496 OA
ATOM     21  C   UNL     1     -31.808   9.508   7.363  1.00  0.00    +0.278 C 
ENDBRANCH  18  20
ENDBRANCH   8  10
ENDBRANCH   7   8
ENDBRANCH   1   7
TORSDOF 7
ENDMDL
MODEL 8
REMARK VINA RESULT:    -7.589      2.994      5.705
REMARK INTER + INTRA:         -10.859
REMARK INTER:                 -10.718
REMARK INTRA:                  -0.141
REMARK UNBOUND:                -0.164
REMARK SMILES CCOC(=O)CCC(=O)c1ccc(OC)c2ccccc12
REMARK SMILES IDX 6 1 4 2 5 3 3 4 2 5 1 6 7 7 8 8 9 9 10 10 21 11 11 12 20 13
REMARK SMILES IDX 16 14 12 15 19 16 17 17 13 18 18 19 14 20 15 21
REMARK H PARENT
ROOT
ATOM      1  C   UNL     1     -31.857   6.204   8.905  1.00  0.00    +0.131 C 
ENDROOT
BRANCH   1   2
ATOM      2  C   UNL     1     -33.030   5.369   8.464  1.00  0.00    +0.306 C 
ATOM      3  O   UNL     1     -33.161   4.181   8.720  1.00  0.00    -0.252 OA
BRANCH   2   4
ATOM      4  O   UNL     1     -33.878   6.113   7.705  1.00  0.00    -0.466 OA
BRANCH   4   5
ATOM      5  C   UNL     1     -34.405   5.464   6.537  1.00  0.00    +0.229 C 
ATOM      6  C   UNL     1     -33.833   6.100   5.281  1.00  0.00    +0.049 C 
ENDBRANCH   4   5
ENDBRANCH   2   4
ENDBRANCH   1   2
BRANCH   1   7
ATOM      7  C   UNL     1     -31.200   6.867   7.701  1.00  0.00    +0.093 C 
BRANCH   7   8
ATOM      8  C   UNL     1     -29.728   7.150   7.934  1.00  0.00    +0.164 C 
ATOM      9  O   UNL     1     -29.027   6.502   8.703  1.00  0.00    -0.294 OA
BRANCH   8  10
ATOM     10  C   UNL     1     -29.172   8.360   7.292  1.00  0.00    +0.026 A 
ATOM     11  C   UNL     1     -29.872   9.588   7.271  1.00  0.00    -0.004 A 
ATOM     12  C   UNL     1     -27.893   8.232   6.742  1.00  0.00    +0.016 A 
ATOM     13  C   UNL     1     -31.189   9.739   7.765  1.00  0.00    +0.009 A 
ATOM     14  C   UNL     1     -29.218  10.719   6.714  1.00  0.00    +0.024 A 
ATOM     15  C   UNL     1     -27.265   9.341   6.185  1.00  0.00    +0.048 A 
ATOM     16  C   UNL     1     -31.839  10.973   7.748  1.00  0.00    +0.001 A 
ATOM     17  C   UNL     1     -29.904  11.955   6.713  1.00  0.00    +0.012 A 
ATOM     18  C   UNL     1     -27.911  10.583   6.171  1.00  0.00    +0.126 A 
ATOM     19  C   UNL     1     -31.194  12.084   7.226  1.00  0.00    +0.001 A 
BRANCH  18  20
ATOM     20  O   UNL     1     -27.346  11.729   5.661  1.00  0.00    -0.496 OA
ATOM     21  C   UNL     1     -25.943  11.732   5.437  1.00  0.00    +0.278 C 
ENDBRANCH  18  20
ENDBRANCH   8  10
ENDBRANCH   7   8
ENDBRANCH   1   7
TORSDOF 7
ENDMDL
MODEL 9
REMARK VINA RESULT:    -7.565      5.429      8.625
REMARK INTER + INTRA:         -10.825
REMARK INTER:                 -10.232
REMARK INTRA:                  -0.592
REMARK UNBOUND:                -0.164
REMARK SMILES CCOC(=O)CCC(=O)c1ccc(OC)c2ccccc12
REMARK SMILES IDX 6 1 4 2 5 3 3 4 2 5 1 6 7 7 8 8 9 9 10 10 21 11 11 12 20 13
REMARK SMILES IDX 16 14 12 15 19 16 17 17 13 18 18 19 14 20 15 21
REMARK H PARENT
ROOT
ATOM      1  C   UNL     1     -35.881   4.954   8.956  1.00  0.00    +0.131 C 
ENDROOT
BRANCH   1   2
ATOM      2  C   UNL     1     -36.948   5.672   9.738  1.00  0.00    +0.306 C 
ATOM      3  O   UNL     1     -37.666   6.547   9.275  1.00  0.00    -0.252 OA
BRANCH   2   4
ATOM      4  O   UNL     1     -36.953   5.246  11.029  1.00  0.00    -0.466 OA
BRANCH   4   5
ATOM      5  C   UNL     1     -38.147   4.578  11.463  1.00  0.00    +0.229 C 
ATOM      6  C   UNL     1     -38.289   3.243  10.751  1.00  0.00    +0.049 C 
ENDBRANCH   4   5
ENDBRANCH   2   4
ENDBRANCH   1   2
BRANCH   1   7
ATOM      7  C   UNL     1     -34.641   4.752   9.818  1.00  0.00    +0.093 C 
BRANCH   7   8
ATOM      8  C   UNL     1     -33.447   4.287   9.007  1.00  0.00    +0.164 C 
ATOM      9  O   UNL     1     -33.082   3.118   8.947  1.00  0.00    -0.294 OA
BRANCH   8  10
ATOM     10  C   UNL     1     -32.619   5.337   8.377  1.00  0.00    +0.026 A 
ATOM     11  C   UNL     1     -32.925   5.872   7.105  1.00  0.00    -0.004 A 
ATOM     12  C   UNL     1     -31.538   5.802   9.131  1.00  0.00    +0.016 A 
ATOM     13  C   UNL     1     -33.974   5.386   6.290  1.00  0.00    +0.009 A 
ATOM     14  C   UNL     1     -32.126   6.943   6.622  1.00  0.00    +0.024 A 
ATOM     15  C   UNL     1     -30.751   6.842   8.645  1.00  0.00    +0.048 A 
ATOM     16  C   UNL     1     -34.260   5.955   5.049  1.00  0.00    +0.001 A 
ATOM     17  C   UNL     1     -32.443   7.499   5.361  1.00  0.00    +0.012 A 
ATOM     18  C   UNL     1     -31.038   7.420   7.403  1.00  0.00    +0.126 A 
ATOM     19  C   UNL     1     -33.497   7.017   4.586  1.00  0.00    +0.001 A 
BRANCH  18  20
ATOM     20  O   UNL     1     -30.322   8.466   6.866  1.00  0.00    -0.496 OA
ATOM     21  C   UNL     1     -29.002   8.679   7.347  1.00  0.00    +0.278 C 
ENDBRANCH  18  20
ENDBRANCH   8  10
ENDBRANCH   7   8
ENDBRANCH   1   7
TORSDOF 7
ENDMDL
