REMARK SMILES C[n+]1cc2ccccc2c2ccccc21
REMARK SMILES IDX 1 1 2 2 15 3 14 4 13 5 12 6 11 7 10 8 9 9 8 10 7 11 6 12
REMARK SMILES IDX 5 13 4 14 3 15
REMARK H PARENT
ROOT
ATOM      1  C   UNL     1      -1.921  -2.543   0.021  1.00  0.00    +0.440 C 
ATOM      2  N   UNL     1      -0.925  -1.449  -0.002  1.00  0.00    -0.200 N 
ATOM      3  C   UNL     1      -1.314  -0.140  -0.077  1.00  0.00    +0.212 A 
ATOM      4  C   UNL     1      -2.679   0.224  -0.134  1.00  0.00    +0.080 A 
ATOM      5  C   UNL     1      -3.075   1.558  -0.210  1.00  0.00    +0.007 A 
ATOM      6  C   UNL     1      -2.117   2.556  -0.230  1.00  0.00    +0.001 A 
ATOM      7  C   UNL     1      -0.763   2.222  -0.174  1.00  0.00    +0.016 A 
ATOM      8  C   UNL     1      -0.318   0.879  -0.097  1.00  0.00    +0.054 A 
ATOM      9  C   UNL     1       1.064   0.516  -0.038  1.00  0.00    +0.002 A 
ATOM     10  C   UNL     1       2.145   1.435  -0.051  1.00  0.00    +0.010 A 
ATOM     11  C   UNL     1       3.478   1.017   0.008  1.00  0.00    +0.001 A 
ATOM     12  C   UNL     1       3.776  -0.334   0.082  1.00  0.00    +0.001 A 
ATOM     13  C   UNL     1       2.742  -1.264   0.096  1.00  0.00    +0.015 A 
ATOM     14  C   UNL     1       1.398  -0.849   0.037  1.00  0.00    +0.046 A 
ATOM     15  C   UNL     1       0.380  -1.791   0.052  1.00  0.00    +0.317 A 
ENDROOT
TORSDOF 0
