MODEL 1
REMARK VINA RESULT:    -9.690      0.000      0.000
REMARK INTER + INTRA:          -9.973
REMARK INTER:                  -9.973
REMARK INTRA:                   0.000
REMARK UNBOUND:                 0.000
REMARK SMILES Nc1ccc2ccc3ccccc3c2c1
REMARK SMILES IDX 1 1 2 4 15 5 3 6 14 7 4 8 13 9 5 10 12 11 8 12 6 13 11 14
REMARK SMILES IDX 9 15 7 16 10 17
REMARK H PARENT 1 2 1 3
ROOT
ATOM      1  N   UNL     1     -28.027  13.565   4.734  1.00  0.00    -0.399 N 
ATOM      2  H   UNL     1     -28.517  14.405   5.023  1.00  0.00    +0.156 HD
ATOM      3  H   UNL     1     -27.027  13.715   4.645  1.00  0.00    +0.156 HD
ENDROOT
BRANCH   1   4
ATOM      4  C   UNL     1     -28.362  12.429   5.482  1.00  0.00    +0.032 A 
ATOM      5  C   UNL     1     -27.431  11.400   5.662  1.00  0.00    +0.034 A 
ATOM      6  C   UNL     1     -29.679  12.207   5.862  1.00  0.00    +0.026 A 
ATOM      7  C   UNL     1     -27.746  10.177   6.314  1.00  0.00    -0.008 A 
ATOM      8  C   UNL     1     -30.035  11.021   6.506  1.00  0.00    +0.011 A 
ATOM      9  C   UNL     1     -26.801   9.115   6.552  1.00  0.00    -0.010 A 
ATOM     10  C   UNL     1     -29.087  10.015   6.742  1.00  0.00    -0.018 A 
ATOM     11  C   UNL     1     -25.437   9.159   6.165  1.00  0.00    +0.009 A 
ATOM     12  C   UNL     1     -27.234   7.937   7.215  1.00  0.00    -0.018 A 
ATOM     13  C   UNL     1     -29.478   8.842   7.392  1.00  0.00    +0.009 A 
ATOM     14  C   UNL     1     -24.553   8.104   6.419  1.00  0.00    +0.001 A 
ATOM     15  C   UNL     1     -26.337   6.885   7.466  1.00  0.00    +0.009 A 
ATOM     16  C   UNL     1     -28.564   7.818   7.627  1.00  0.00    +0.009 A 
ATOM     17  C   UNL     1     -25.005   6.966   7.070  1.00  0.00    +0.001 A 
ENDBRANCH   1   4
TORSDOF 1
ENDMDL
MODEL 2
REMARK VINA RESULT:    -9.369      2.537      5.470
REMARK INTER + INTRA:          -9.642
REMARK INTER:                  -9.642
REMARK INTRA:                   0.000
REMARK UNBOUND:                 0.000
REMARK SMILES Nc1ccc2ccc3ccccc3c2c1
REMARK SMILES IDX 1 1 2 4 15 5 3 6 14 7 4 8 13 9 5 10 12 11 8 12 6 13 11 14
REMARK SMILES IDX 9 15 7 16 10 17
REMARK H PARENT 1 2 1 3
ROOT
ATOM      1  N   UNL     1     -27.729   5.148   8.819  1.00  0.00    -0.399 N 
ATOM      2  H   UNL     1     -28.703   4.967   8.597  1.00  0.00    +0.156 HD
ATOM      3  H   UNL     1     -27.151   4.319   8.718  1.00  0.00    +0.156 HD
ENDROOT
BRANCH   1   4
ATOM      4  C   UNL     1     -27.206   6.281   8.184  1.00  0.00    +0.032 A 
ATOM      5  C   UNL     1     -28.034   7.370   7.884  1.00  0.00    +0.034 A 
ATOM      6  C   UNL     1     -25.925   6.254   7.648  1.00  0.00    +0.026 A 
ATOM      7  C   UNL     1     -27.588   8.499   7.145  1.00  0.00    -0.008 A 
ATOM      8  C   UNL     1     -25.445   7.340   6.916  1.00  0.00    +0.011 A 
ATOM      9  C   UNL     1     -28.402   9.653   6.855  1.00  0.00    -0.010 A 
ATOM     10  C   UNL     1     -26.255   8.458   6.669  1.00  0.00    -0.018 A 
ATOM     11  C   UNL     1     -29.749   9.806   7.272  1.00  0.00    +0.009 A 
ATOM     12  C   UNL     1     -27.846  10.723   6.106  1.00  0.00    -0.018 A 
ATOM     13  C   UNL     1     -25.741   9.530   5.935  1.00  0.00    +0.009 A 
ATOM     14  C   UNL     1     -30.501  10.946   6.969  1.00  0.00    +0.001 A 
ATOM     15  C   UNL     1     -28.611  11.864   5.809  1.00  0.00    +0.009 A 
ATOM     16  C   UNL     1     -26.524  10.647   5.659  1.00  0.00    +0.009 A 
ATOM     17  C   UNL     1     -29.930  11.976   6.237  1.00  0.00    +0.001 A 
ENDBRANCH   1   4
TORSDOF 1
ENDMDL
MODEL 3
REMARK VINA RESULT:    -9.366      2.376      4.505
REMARK INTER + INTRA:          -9.640
REMARK INTER:                  -9.640
REMARK INTRA:                   0.000
REMARK UNBOUND:                 0.000
REMARK SMILES Nc1ccc2ccc3ccccc3c2c1
REMARK SMILES IDX 1 1 2 4 15 5 3 6 14 7 4 8 13 9 5 10 12 11 8 12 6 13 11 14
REMARK SMILES IDX 9 15 7 16 10 17
REMARK H PARENT 1 2 1 3
ROOT
ATOM      1  N   UNL     1     -33.266   9.229   7.687  1.00  0.00    -0.399 N 
ATOM      2  H   UNL     1     -33.689   9.631   6.857  1.00  0.00    +0.156 HD
ATOM      3  H   UNL     1     -33.764   8.405   8.011  1.00  0.00    +0.156 HD
ENDROOT
BRANCH   1   4
ATOM      4  C   UNL     1     -31.881   9.050   7.587  1.00  0.00    +0.032 A 
ATOM      5  C   UNL     1     -31.079  10.043   7.013  1.00  0.00    +0.034 A 
ATOM      6  C   UNL     1     -31.317   7.808   7.847  1.00  0.00    +0.026 A 
ATOM      7  C   UNL     1     -29.687   9.875   6.783  1.00  0.00    -0.008 A 
ATOM      8  C   UNL     1     -29.954   7.597   7.636  1.00  0.00    +0.011 A 
ATOM      9  C   UNL     1     -28.825  10.891   6.232  1.00  0.00    -0.010 A 
ATOM     10  C   UNL     1     -29.137   8.613   7.119  1.00  0.00    -0.018 A 
ATOM     11  C   UNL     1     -29.260  12.186   5.853  1.00  0.00    +0.009 A 
ATOM     12  C   UNL     1     -27.447  10.606   6.048  1.00  0.00    -0.018 A 
ATOM     13  C   UNL     1     -27.776   8.368   6.924  1.00  0.00    +0.009 A 
ATOM     14  C   UNL     1     -28.386  13.143   5.325  1.00  0.00    +0.001 A 
ATOM     15  C   UNL     1     -26.579  11.575   5.517  1.00  0.00    +0.009 A 
ATOM     16  C   UNL     1     -26.942   9.351   6.397  1.00  0.00    +0.009 A 
ATOM     17  C   UNL     1     -27.045  12.836   5.157  1.00  0.00    +0.001 A 
ENDBRANCH   1   4
TORSDOF 1
ENDMDL
MODEL 4
REMARK VINA RESULT:    -9.350      1.575      2.778
REMARK INTER + INTRA:          -9.623
REMARK INTER:                  -9.623
REMARK INTRA:                   0.000
REMARK UNBOUND:                 0.000
REMARK SMILES Nc1ccc2ccc3ccccc3c2c1
REMARK SMILES IDX 1 1 2 4 15 5 3 6 14 7 4 8 13 9 5 10 12 11 8 12 6 13 11 14
REMARK SMILES IDX 9 15 7 16 10 17
REMARK H PARENT 1 2 1 3
ROOT
ATOM      1  N   UNL     1     -31.844  11.110   7.495  1.00  0.00    -0.399 N 
ATOM      2  H   UNL     1     -31.935  10.762   8.444  1.00  0.00    +0.156 HD
ATOM      3  H   UNL     1     -32.216  12.049   7.392  1.00  0.00    +0.156 HD
ENDROOT
BRANCH   1   4
ATOM      4  C   UNL     1     -30.562  10.948   6.954  1.00  0.00    +0.032 A 
ATOM      5  C   UNL     1     -29.787   9.833   7.292  1.00  0.00    +0.034 A 
ATOM      6  C   UNL     1     -29.960  11.990   6.261  1.00  0.00    +0.026 A 
ATOM      7  C   UNL     1     -28.441   9.669   6.865  1.00  0.00    -0.008 A 
ATOM      8  C   UNL     1     -28.641  11.873   5.821  1.00  0.00    +0.011 A 
ATOM      9  C   UNL     1     -27.629   8.515   7.161  1.00  0.00    -0.010 A 
ATOM     10  C   UNL     1     -27.884  10.727   6.107  1.00  0.00    -0.018 A 
ATOM     11  C   UNL     1     -28.074   7.398   7.914  1.00  0.00    +0.009 A 
ATOM     12  C   UNL     1     -26.295   8.463   6.679  1.00  0.00    -0.018 A 
ATOM     13  C   UNL     1     -26.567  10.643   5.649  1.00  0.00    +0.009 A 
ATOM     14  C   UNL     1     -27.251   6.296   8.174  1.00  0.00    +0.001 A 
ATOM     15  C   UNL     1     -25.479   7.352   6.946  1.00  0.00    +0.009 A 
ATOM     16  C   UNL     1     -25.784   9.526   5.929  1.00  0.00    +0.009 A 
ATOM     17  C   UNL     1     -25.952   6.274   7.690  1.00  0.00    +0.001 A 
ENDBRANCH   1   4
TORSDOF 1
ENDMDL
MODEL 5
REMARK VINA RESULT:    -9.051      1.416      3.764
REMARK INTER + INTRA:          -9.316
REMARK INTER:                  -9.316
REMARK INTRA:                   0.000
REMARK UNBOUND:                 0.000
REMARK SMILES Nc1ccc2ccc3ccccc3c2c1
REMARK SMILES IDX 1 1 2 4 15 5 3 6 14 7 4 8 13 9 5 10 12 11 8 12 6 13 11 14
REMARK SMILES IDX 9 15 7 16 10 17
REMARK H PARENT 1 2 1 3
ROOT
ATOM      1  N   UNL     1     -28.060  13.967   4.898  1.00  0.00    -0.399 N 
ATOM      2  H   UNL     1     -28.012  14.621   5.673  1.00  0.00    +0.156 HD
ATOM      3  H   UNL     1     -27.497  14.266   4.108  1.00  0.00    +0.156 HD
ENDROOT
BRANCH   1   4
ATOM      4  C   UNL     1     -27.849  12.634   5.270  1.00  0.00    +0.032 A 
ATOM      5  C   UNL     1     -28.902  11.868   5.785  1.00  0.00    +0.034 A 
ATOM      6  C   UNL     1     -26.560  12.124   5.343  1.00  0.00    +0.026 A 
ATOM      7  C   UNL     1     -28.726  10.548   6.282  1.00  0.00    -0.008 A 
ATOM      8  C   UNL     1     -26.340  10.833   5.823  1.00  0.00    +0.011 A 
ATOM      9  C   UNL     1     -29.794   9.718   6.781  1.00  0.00    -0.010 A 
ATOM     10  C   UNL     1     -27.403  10.042   6.281  1.00  0.00    -0.018 A 
ATOM     11  C   UNL     1     -31.155  10.115   6.837  1.00  0.00    +0.009 A 
ATOM     12  C   UNL     1     -29.496   8.413   7.251  1.00  0.00    -0.018 A 
ATOM     13  C   UNL     1     -27.146   8.752   6.753  1.00  0.00    +0.009 A 
ATOM     14  C   UNL     1     -32.160   9.275   7.327  1.00  0.00    +0.001 A 
ATOM     15  C   UNL     1     -30.514   7.577   7.741  1.00  0.00    +0.009 A 
ATOM     16  C   UNL     1     -28.178   7.948   7.230  1.00  0.00    +0.009 A 
ATOM     17  C   UNL     1     -31.838   8.004   7.780  1.00  0.00    +0.001 A 
ENDBRANCH   1   4
TORSDOF 1
ENDMDL
MODEL 6
REMARK VINA RESULT:    -8.578      2.935      5.197
REMARK INTER + INTRA:          -8.829
REMARK INTER:                  -8.829
REMARK INTRA:                   0.000
REMARK UNBOUND:                 0.000
REMARK SMILES Nc1ccc2ccc3ccccc3c2c1
REMARK SMILES IDX 1 1 2 4 15 5 3 6 14 7 4 8 13 9 5 10 12 11 8 12 6 13 11 14
REMARK SMILES IDX 9 15 7 16 10 17
REMARK H PARENT 1 2 1 3
ROOT
ATOM      1  N   UNL     1     -34.310   7.715   7.623  1.00  0.00    -0.399 N 
ATOM      2  H   UNL     1     -34.786   8.435   8.157  1.00  0.00    +0.156 HD
ATOM      3  H   UNL     1     -34.650   7.656   6.668  1.00  0.00    +0.156 HD
ENDROOT
BRANCH   1   4
ATOM      4  C   UNL     1     -32.915   7.765   7.723  1.00  0.00    +0.032 A 
ATOM      5  C   UNL     1     -32.208   8.861   7.214  1.00  0.00    +0.034 A 
ATOM      6  C   UNL     1     -32.201   6.642   8.122  1.00  0.00    +0.026 A 
ATOM      7  C   UNL     1     -30.788   8.920   7.187  1.00  0.00    -0.008 A 
ATOM      8  C   UNL     1     -30.806   6.654   8.112  1.00  0.00    +0.011 A 
ATOM      9  C   UNL     1     -30.030  10.049   6.708  1.00  0.00    -0.010 A 
ATOM     10  C   UNL     1     -30.097   7.777   7.660  1.00  0.00    -0.018 A 
ATOM     11  C   UNL     1     -30.608  11.243   6.207  1.00  0.00    +0.009 A 
ATOM     12  C   UNL     1     -28.612   9.992   6.730  1.00  0.00    -0.018 A 
ATOM     13  C   UNL     1     -28.701   7.756   7.667  1.00  0.00    +0.009 A 
ATOM     14  C   UNL     1     -29.833  12.317   5.755  1.00  0.00    +0.001 A 
ATOM     15  C   UNL     1     -27.844  11.076   6.274  1.00  0.00    +0.009 A 
ATOM     16  C   UNL     1     -27.968   8.848   7.210  1.00  0.00    +0.009 A 
ATOM     17  C   UNL     1     -28.449  12.232   5.789  1.00  0.00    +0.001 A 
ENDBRANCH   1   4
TORSDOF 1
ENDMDL
MODEL 7
REMARK VINA RESULT:    -8.526      2.575      3.995
REMARK INTER + INTRA:          -8.775
REMARK INTER:                  -8.775
REMARK INTRA:                   0.000
REMARK UNBOUND:                 0.000
REMARK SMILES Nc1ccc2ccc3ccccc3c2c1
REMARK SMILES IDX 1 1 2 4 15 5 3 6 14 7 4 8 13 9 5 10 12 11 8 12 6 13 11 14
REMARK SMILES IDX 9 15 7 16 10 17
REMARK H PARENT 1 2 1 3
ROOT
ATOM      1  N   UNL     1     -32.132   6.925   8.242  1.00  0.00    -0.399 N 
ATOM      2  H   UNL     1     -33.136   6.935   8.396  1.00  0.00    +0.156 HD
ATOM      3  H   UNL     1     -31.825   6.088   7.758  1.00  0.00    +0.156 HD
ENDROOT
BRANCH   1   4
ATOM      4  C   UNL     1     -31.633   8.112   7.690  1.00  0.00    +0.032 A 
ATOM      5  C   UNL     1     -30.276   8.226   7.367  1.00  0.00    +0.034 A 
ATOM      6  C   UNL     1     -32.421   9.255   7.664  1.00  0.00    +0.026 A 
ATOM      7  C   UNL     1     -29.690   9.437   6.909  1.00  0.00    -0.008 A 
ATOM      8  C   UNL     1     -31.888  10.466   7.220  1.00  0.00    +0.011 A 
ATOM      9  C   UNL     1     -28.306   9.578   6.529  1.00  0.00    -0.010 A 
ATOM     10  C   UNL     1     -30.542  10.566   6.837  1.00  0.00    -0.018 A 
ATOM     11  C   UNL     1     -27.358   8.524   6.564  1.00  0.00    +0.009 A 
ATOM     12  C   UNL     1     -27.834  10.840   6.085  1.00  0.00    -0.018 A 
ATOM     13  C   UNL     1     -30.043  11.793   6.395  1.00  0.00    +0.009 A 
ATOM     14  C   UNL     1     -26.024   8.705   6.182  1.00  0.00    +0.001 A 
ATOM     15  C   UNL     1     -26.492  11.010   5.704  1.00  0.00    +0.009 A 
ATOM     16  C   UNL     1     -28.708  11.928   6.023  1.00  0.00    +0.009 A 
ATOM     17  C   UNL     1     -25.591   9.950   5.752  1.00  0.00    +0.001 A 
ENDBRANCH   1   4
TORSDOF 1
ENDMDL
MODEL 8
REMARK VINA RESULT:    -7.410      5.406      7.288
REMARK INTER + INTRA:          -7.627
REMARK INTER:                  -7.627
REMARK INTRA:                   0.000
REMARK UNBOUND:                 0.000
REMARK SMILES Nc1ccc2ccc3ccccc3c2c1
REMARK SMILES IDX 1 1 2 4 15 5 3 6 14 7 4 8 13 9 5 10 12 11 8 12 6 13 11 14
REMARK SMILES IDX 9 15 7 16 10 17
REMARK H PARENT 1 2 1 3
ROOT
ATOM      1  N   UNL     1     -29.736   8.800   7.344  1.00  0.00    -0.399 N 
ATOM      2  H   UNL     1     -28.979   8.239   7.721  1.00  0.00    +0.156 HD
ATOM      3  H   UNL     1     -29.415   9.450   6.633  1.00  0.00    +0.156 HD
ENDROOT
BRANCH   1   4
ATOM      4  C   UNL     1     -30.857   8.053   6.961  1.00  0.00    +0.032 A 
ATOM      5  C   UNL     1     -31.428   7.130   7.845  1.00  0.00    +0.034 A 
ATOM      6  C   UNL     1     -31.278   8.053   5.637  1.00  0.00    +0.026 A 
ATOM      7  C   UNL     1     -32.495   6.266   7.478  1.00  0.00    -0.008 A 
ATOM      8  C   UNL     1     -32.322   7.221   5.231  1.00  0.00    +0.011 A 
ATOM      9  C   UNL     1     -33.133   5.335   8.375  1.00  0.00    -0.010 A 
ATOM     10  C   UNL     1     -32.937   6.341   6.134  1.00  0.00    -0.018 A 
ATOM     11  C   UNL     1     -32.776   5.166   9.737  1.00  0.00    +0.009 A 
ATOM     12  C   UNL     1     -34.191   4.522   7.892  1.00  0.00    -0.018 A 
ATOM     13  C   UNL     1     -33.981   5.525   5.693  1.00  0.00    +0.009 A 
ATOM     14  C   UNL     1     -33.424   4.251  10.572  1.00  0.00    +0.001 A 
ATOM     15  C   UNL     1     -34.836   3.606   8.741  1.00  0.00    +0.009 A 
ATOM     16  C   UNL     1     -34.601   4.629   6.561  1.00  0.00    +0.009 A 
ATOM     17  C   UNL     1     -34.456   3.470  10.073  1.00  0.00    +0.001 A 
ENDBRANCH   1   4
TORSDOF 1
ENDMDL
MODEL 9
REMARK VINA RESULT:    -7.286      7.331      9.917
REMARK INTER + INTRA:          -7.499
REMARK INTER:                  -7.499
REMARK INTRA:                   0.000
REMARK UNBOUND:                 0.000
REMARK SMILES Nc1ccc2ccc3ccccc3c2c1
REMARK SMILES IDX 1 1 2 4 15 5 3 6 14 7 4 8 13 9 5 10 12 11 8 12 6 13 11 14
REMARK SMILES IDX 9 15 7 16 10 17
REMARK H PARENT 1 2 1 3
ROOT
ATOM      1  N   UNL     1     -28.107   3.908   9.183  1.00  0.00    -0.399 N 
ATOM      2  H   UNL     1     -28.527   3.410   8.405  1.00  0.00    +0.156 HD
ATOM      3  H   UNL     1     -28.730   3.967   9.983  1.00  0.00    +0.156 HD
ENDROOT
BRANCH   1   4
ATOM      4  C   UNL     1     -26.816   3.471   9.503  1.00  0.00    +0.032 A 
ATOM      5  C   UNL     1     -26.505   2.107   9.480  1.00  0.00    +0.034 A 
ATOM      6  C   UNL     1     -25.897   4.353  10.058  1.00  0.00    +0.026 A 
ATOM      7  C   UNL     1     -25.248   1.593   9.900  1.00  0.00    -0.008 A 
ATOM      8  C   UNL     1     -24.651   3.894  10.484  1.00  0.00    +0.011 A 
ATOM      9  C   UNL     1     -24.880   0.200   9.851  1.00  0.00    -0.010 A 
ATOM     10  C   UNL     1     -24.315   2.534  10.403  1.00  0.00    -0.018 A 
ATOM     11  C   UNL     1     -25.729  -0.832   9.375  1.00  0.00    +0.009 A 
ATOM     12  C   UNL     1     -23.593  -0.194  10.299  1.00  0.00    -0.018 A 
ATOM     13  C   UNL     1     -23.057   2.110  10.835  1.00  0.00    +0.009 A 
ATOM     14  C   UNL     1     -25.329  -2.173   9.342  1.00  0.00    +0.001 A 
ATOM     15  C   UNL     1     -23.203  -1.543  10.261  1.00  0.00    +0.009 A 
ATOM     16  C   UNL     1     -22.699   0.765  10.783  1.00  0.00    +0.009 A 
ATOM     17  C   UNL     1     -24.064  -2.528   9.787  1.00  0.00    +0.001 A 
ENDBRANCH   1   4
TORSDOF 1
ENDMDL
