REMARK SMILES CO[C@H]1O[C@H](COS(=O)(=O)c2ccc(C)cc2)[C@H](OC(=O)c2ccccc2)[C@H](OC(=O)c2ccccc2)[C@H]1OC(=O)c1ccccc1
REMARK SMILES IDX 6 1 5 2 3 3 4 4 38 5 28 6 18 7 2 8 1 9 39 10 40 11 41 12
REMARK SMILES IDX 42 13 43 14 47 15 44 16 46 17 45 18 29 19 30 20 31 21 32 22
REMARK SMILES IDX 33 23 37 24 34 25 36 26 35 27 19 28 20 29 21 30 22 31 23 32
REMARK SMILES IDX 27 33 24 34 26 35 25 36 7 37 8 38 9 39 10 40 11 41 12 42
REMARK SMILES IDX 17 43 13 44 16 45 14 46 15 47
REMARK H PARENT
ROOT
ATOM      1  C   UNL     1       1.135   0.388  -1.734  1.00  0.00    +0.219 C 
ENDROOT
BRANCH   1   2
ATOM      2  C   UNL     1      -0.137  -0.320  -1.265  1.00  0.00    +0.193 C 
ATOM      3  C   UNL     1      -0.833  -2.059   0.216  1.00  0.00    +0.295 C 
ATOM      4  O   UNL     1       0.198  -1.116  -0.118  1.00  0.00    -0.339 OA
ATOM      5  C   UNL     1      -2.270  -1.493   0.011  1.00  0.00    +0.277 C 
ATOM      6  C   UNL     1      -2.242   0.031   0.152  1.00  0.00    +0.266 C 
ATOM      7  C   UNL     1      -1.281   0.651  -0.896  1.00  0.00    +0.253 C 
BRANCH   3   8
ATOM      8  O   UNL     1      -0.665  -3.275  -0.513  1.00  0.00    -0.352 OA
ATOM      9  C   UNL     1       0.563  -3.920  -0.215  1.00  0.00    +0.198 C 
ENDBRANCH   3   8
BRANCH   5  10
ATOM     10  O   UNL     1      -2.782  -1.802  -1.308  1.00  0.00    -0.449 OA
BRANCH  10  11
ATOM     11  C   UNL     1      -3.511  -2.945  -1.395  1.00  0.00    +0.338 C 
ATOM     12  O   UNL     1      -3.852  -3.647  -0.456  1.00  0.00    -0.246 OA
BRANCH  11  13
ATOM     13  C   UNL     1      -3.877  -3.228  -2.809  1.00  0.00    +0.060 A 
ATOM     14  C   UNL     1      -3.383  -2.470  -3.881  1.00  0.00    +0.015 A 
ATOM     15  C   UNL     1      -4.742  -4.301  -3.066  1.00  0.00    +0.015 A 
ATOM     16  C   UNL     1      -3.755  -2.784  -5.191  1.00  0.00    +0.001 A 
ATOM     17  C   UNL     1      -5.113  -4.609  -4.376  1.00  0.00    +0.001 A 
ATOM     18  C   UNL     1      -4.619  -3.851  -5.437  1.00  0.00    +0.000 A 
ENDBRANCH  11  13
ENDBRANCH  10  11
ENDBRANCH   5  10
BRANCH   6  19
ATOM     19  O   UNL     1      -1.837   0.338   1.507  1.00  0.00    -0.450 OA
BRANCH  19  20
ATOM     20  C   UNL     1      -2.362   1.467   2.046  1.00  0.00    +0.338 C 
ATOM     21  O   UNL     1      -3.166   2.211   1.505  1.00  0.00    -0.246 OA
BRANCH  20  22
ATOM     22  C   UNL     1      -1.810   1.702   3.406  1.00  0.00    +0.060 A 
ATOM     23  C   UNL     1      -0.910   0.818   4.018  1.00  0.00    +0.015 A 
ATOM     24  C   UNL     1      -2.210   2.859   4.090  1.00  0.00    +0.015 A 
ATOM     25  C   UNL     1      -0.424   1.087   5.299  1.00  0.00    +0.001 A 
ATOM     26  C   UNL     1      -1.720   3.125   5.370  1.00  0.00    +0.001 A 
ATOM     27  C   UNL     1      -0.831   2.238   5.975  1.00  0.00    +0.000 A 
ENDBRANCH  20  22
ENDBRANCH  19  20
ENDBRANCH   6  19
BRANCH   7  28
ATOM     28  O   UNL     1      -0.758   1.891  -0.368  1.00  0.00    -0.452 OA
BRANCH  28  29
ATOM     29  C   UNL     1      -0.889   2.997  -1.139  1.00  0.00    +0.338 C 
ATOM     30  O   UNL     1      -1.347   3.023  -2.270  1.00  0.00    -0.246 OA
BRANCH  29  31
ATOM     31  C   UNL     1      -0.365   4.194  -0.427  1.00  0.00    +0.060 A 
ATOM     32  C   UNL     1       0.242   4.113   0.834  1.00  0.00    +0.015 A 
ATOM     33  C   UNL     1      -0.481   5.441  -1.057  1.00  0.00    +0.015 A 
ATOM     34  C   UNL     1       0.720   5.269   1.458  1.00  0.00    +0.001 A 
ATOM     35  C   UNL     1       0.000   6.593  -0.432  1.00  0.00    +0.001 A 
ATOM     36  C   UNL     1       0.598   6.505   0.824  1.00  0.00    +0.000 A 
ENDBRANCH  29  31
ENDBRANCH  28  29
ENDBRANCH   7  28
ENDBRANCH   1   2
BRANCH   1  37
ATOM     37  O   UNL     1       2.028  -0.588  -2.264  1.00  0.00    -0.263 OA
BRANCH  37  38
ATOM     38  S   UNL     1       3.591  -0.179  -2.465  1.00  0.00    +0.297 S 
ATOM     39  O   UNL     1       3.693   1.268  -2.493  1.00  0.00    -0.194 OA
ATOM     40  O   UNL     1       4.128  -0.980  -3.546  1.00  0.00    -0.194 OA
BRANCH  38  41
ATOM     41  C   UNL     1       4.360  -0.751  -0.967  1.00  0.00    +0.094 A 
ATOM     42  C   UNL     1       4.876   0.162  -0.045  1.00  0.00    +0.023 A 
ATOM     43  C   UNL     1       4.458  -2.127  -0.744  1.00  0.00    +0.023 A 
ATOM     44  C   UNL     1       5.488  -0.311   1.117  1.00  0.00    +0.005 A 
ATOM     45  C   UNL     1       5.073  -2.592   0.420  1.00  0.00    +0.005 A 
ATOM     46  C   UNL     1       5.583  -1.689   1.363  1.00  0.00    -0.051 A 
ATOM     47  C   UNL     1       6.280  -2.186   2.597  1.00  0.00    +0.044 C 
ENDBRANCH  38  41
ENDBRANCH  37  38
ENDBRANCH   1  37
TORSDOF 14
