REMARK SMILES Cc1nc2ccccc2c(O)c1-c1ccccc1
REMARK SMILES IDX 1 1 2 2 12 3 10 4 9 5 8 6 7 7 6 8 5 9 4 10 3 11 13 12 14 13
REMARK SMILES IDX 18 14 15 15 17 16 16 17 11 18
REMARK H PARENT 11 19
ROOT
ATOM      1  C   UNL     1      -0.320   2.574   0.697  1.00  0.00    +0.067 C 
ATOM      2  C   UNL     1       0.418   1.321   0.313  1.00  0.00    +0.050 A 
ATOM      3  C   UNL     1      -0.261   0.168  -0.103  1.00  0.00    +0.045 A 
ATOM      4  C   UNL     1       0.539  -0.939  -0.435  1.00  0.00    +0.134 A 
ATOM      5  C   UNL     1       1.944  -0.884  -0.352  1.00  0.00    +0.043 A 
ATOM      6  C   UNL     1       2.786  -1.972  -0.676  1.00  0.00    +0.014 A 
ATOM      7  C   UNL     1       4.171  -1.861  -0.575  1.00  0.00    +0.001 A 
ATOM      8  C   UNL     1       4.728  -0.662  -0.150  1.00  0.00    +0.002 A 
ATOM      9  C   UNL     1       3.896   0.414   0.171  1.00  0.00    +0.029 A 
ATOM     10  C   UNL     1       2.513   0.326   0.078  1.00  0.00    +0.074 A 
ATOM     11  N   UNL     1       1.772   1.398   0.401  1.00  0.00    -0.252 NA
ENDROOT
BRANCH   3  12
ATOM     12  C   UNL     1      -1.726   0.118  -0.188  1.00  0.00    -0.013 A 
ATOM     13  C   UNL     1      -2.386   0.462  -1.377  1.00  0.00    +0.009 A 
ATOM     14  C   UNL     1      -2.492  -0.301   0.911  1.00  0.00    +0.009 A 
ATOM     15  C   UNL     1      -3.778   0.395  -1.464  1.00  0.00    +0.001 A 
ATOM     16  C   UNL     1      -3.884  -0.368   0.824  1.00  0.00    +0.001 A 
ATOM     17  C   UNL     1      -4.526  -0.021  -0.363  1.00  0.00    +0.000 A 
ENDBRANCH   3  12
BRANCH   4  18
ATOM     18  O   UNL     1      -0.026  -2.124  -0.857  1.00  0.00    -0.507 OA
ATOM     19  H   UNL     1      -0.995  -2.031  -0.871  1.00  0.00    +0.293 HD
ENDBRANCH   4  18
TORSDOF 2
