MODEL 1
REMARK VINA RESULT:    -8.622      0.000      0.000
REMARK INTER + INTRA:          -8.622
REMARK INTER:                  -8.622
REMARK INTRA:                   0.000
REMARK UNBOUND:                 0.000
REMARK SMILES O=C1C(Cl)=C(Cl)C(=O)c2ccccc21
REMARK SMILES IDX 6 1 5 2 3 3 4 4 2 5 1 6 14 7 9 8 10 9 11 10 12 11 13 12 7 13
REMARK SMILES IDX 8 14
REMARK H PARENT
ROOT
ATOM      1 Cl   UNL     1     -24.300   8.103   6.307  1.00  0.00    -0.078 Cl
ATOM      2  C   UNL     1     -25.932   8.647   6.522  1.00  0.00    +0.111 C 
ATOM      3  C   UNL     1     -26.874   7.901   7.111  1.00  0.00    +0.111 C 
ATOM      4 Cl   UNL     1     -26.566   6.309   7.725  1.00  0.00    -0.078 Cl
ATOM      5  C   UNL     1     -28.266   8.398   7.281  1.00  0.00    +0.206 C 
ATOM      6  O   UNL     1     -29.143   7.731   7.817  1.00  0.00    -0.288 OA
ATOM      7  C   UNL     1     -28.582   9.747   6.776  1.00  0.00    +0.035 A 
ATOM      8  C   UNL     1     -27.602  10.521   6.163  1.00  0.00    +0.035 A 
ATOM      9  C   UNL     1     -27.920  11.803   5.689  1.00  0.00    +0.013 A 
ATOM     10  C   UNL     1     -29.217  12.301   5.831  1.00  0.00    +0.001 A 
ATOM     11  C   UNL     1     -30.197  11.525   6.445  1.00  0.00    +0.001 A 
ATOM     12  C   UNL     1     -29.883  10.250   6.917  1.00  0.00    +0.013 A 
ATOM     13  C   UNL     1     -26.229  10.010   6.006  1.00  0.00    +0.206 C 
ATOM     14  O   UNL     1     -25.380  10.709   5.464  1.00  0.00    -0.288 OA
ENDROOT
TORSDOF 0
ENDMDL
MODEL 2
REMARK VINA RESULT:    -8.609      0.052      2.946
REMARK INTER + INTRA:          -8.609
REMARK INTER:                  -8.609
REMARK INTRA:                   0.000
REMARK UNBOUND:                 0.000
REMARK SMILES O=C1C(Cl)=C(Cl)C(=O)c2ccccc21
REMARK SMILES IDX 6 1 5 2 3 3 4 4 2 5 1 6 14 7 9 8 10 9 11 10 12 11 13 12 7 13
REMARK SMILES IDX 8 14
REMARK H PARENT
ROOT
ATOM      1 Cl   UNL     1     -26.558   6.316   7.763  1.00  0.00    -0.078 Cl
ATOM      2  C   UNL     1     -26.886   7.901   7.142  1.00  0.00    +0.111 C 
ATOM      3  C   UNL     1     -25.956   8.650   6.537  1.00  0.00    +0.111 C 
ATOM      4 Cl   UNL     1     -24.323   8.116   6.306  1.00  0.00    -0.078 Cl
ATOM      5  C   UNL     1     -26.270  10.007   6.014  1.00  0.00    +0.206 C 
ATOM      6  O   UNL     1     -25.432  10.708   5.457  1.00  0.00    -0.288 OA
ATOM      7  C   UNL     1     -27.645  10.510   6.184  1.00  0.00    +0.035 A 
ATOM      8  C   UNL     1     -28.611   9.731   6.814  1.00  0.00    +0.035 A 
ATOM      9  C   UNL     1     -29.915  10.225   6.966  1.00  0.00    +0.013 A 
ATOM     10  C   UNL     1     -30.244  11.494   6.488  1.00  0.00    +0.001 A 
ATOM     11  C   UNL     1     -29.277  12.274   5.858  1.00  0.00    +0.001 A 
ATOM     12  C   UNL     1     -27.979  11.785   5.705  1.00  0.00    +0.013 A 
ATOM     13  C   UNL     1     -28.279   8.389   7.323  1.00  0.00    +0.206 C 
ATOM     14  O   UNL     1     -29.145   7.718   7.875  1.00  0.00    -0.288 OA
ENDROOT
TORSDOF 0
ENDMDL
MODEL 3
REMARK VINA RESULT:    -8.156      2.595      5.000
REMARK INTER + INTRA:          -8.156
REMARK INTER:                  -8.156
REMARK INTRA:                   0.000
REMARK UNBOUND:                 0.000
REMARK SMILES O=C1C(Cl)=C(Cl)C(=O)c2ccccc21
REMARK SMILES IDX 6 1 5 2 3 3 4 4 2 5 1 6 14 7 9 8 10 9 11 10 12 11 13 12 7 13
REMARK SMILES IDX 8 14
REMARK H PARENT
ROOT
ATOM      1 Cl   UNL     1     -30.399  11.536   6.299  1.00  0.00    -0.078 Cl
ATOM      2  C   UNL     1     -28.837  10.785   6.298  1.00  0.00    +0.111 C 
ATOM      3  C   UNL     1     -27.745  11.382   5.802  1.00  0.00    +0.111 C 
ATOM      4 Cl   UNL     1     -27.776  12.970   5.108  1.00  0.00    -0.078 Cl
ATOM      5  C   UNL     1     -26.418  10.710   5.816  1.00  0.00    +0.206 C 
ATOM      6  O   UNL     1     -25.407  11.239   5.368  1.00  0.00    -0.288 OA
ATOM      7  C   UNL     1     -26.337   9.356   6.395  1.00  0.00    +0.035 A 
ATOM      8  C   UNL     1     -27.472   8.737   6.910  1.00  0.00    +0.035 A 
ATOM      9  C   UNL     1     -27.376   7.449   7.458  1.00  0.00    +0.013 A 
ATOM     10  C   UNL     1     -26.147   6.790   7.487  1.00  0.00    +0.001 A 
ATOM     11  C   UNL     1     -25.011   7.410   6.972  1.00  0.00    +0.001 A 
ATOM     12  C   UNL     1     -25.103   8.691   6.426  1.00  0.00    +0.013 A 
ATOM     13  C   UNL     1     -28.777   9.421   6.887  1.00  0.00    +0.206 C 
ATOM     14  O   UNL     1     -29.765   8.858   7.346  1.00  0.00    -0.288 OA
ENDROOT
TORSDOF 0
ENDMDL
MODEL 4
REMARK VINA RESULT:    -7.654      2.379      5.138
REMARK INTER + INTRA:          -7.654
REMARK INTER:                  -7.654
REMARK INTRA:                   0.000
REMARK UNBOUND:                 0.000
REMARK SMILES O=C1C(Cl)=C(Cl)C(=O)c2ccccc21
REMARK SMILES IDX 6 1 5 2 3 3 4 4 2 5 1 6 14 7 9 8 10 9 11 10 12 11 13 12 7 13
REMARK SMILES IDX 8 14
REMARK H PARENT
ROOT
ATOM      1 Cl   UNL     1     -29.014  10.885   6.463  1.00  0.00    -0.078 Cl
ATOM      2  C   UNL     1     -27.784   9.687   6.705  1.00  0.00    +0.111 C 
ATOM      3  C   UNL     1     -26.514   9.862   6.317  1.00  0.00    +0.111 C 
ATOM      4 Cl   UNL     1     -25.962  11.306   5.530  1.00  0.00    -0.078 Cl
ATOM      5  C   UNL     1     -25.482   8.815   6.540  1.00  0.00    +0.206 C 
ATOM      6  O   UNL     1     -24.315   8.956   6.192  1.00  0.00    -0.288 OA
ATOM      7  C   UNL     1     -25.899   7.567   7.205  1.00  0.00    +0.035 A 
ATOM      8  C   UNL     1     -27.218   7.386   7.608  1.00  0.00    +0.035 A 
ATOM      9  C   UNL     1     -27.597   6.192   8.241  1.00  0.00    +0.013 A 
ATOM     10  C   UNL     1     -26.654   5.188   8.466  1.00  0.00    +0.001 A 
ATOM     11  C   UNL     1     -25.333   5.371   8.062  1.00  0.00    +0.001 A 
ATOM     12  C   UNL     1     -24.954   6.557   7.433  1.00  0.00    +0.013 A 
ATOM     13  C   UNL     1     -28.225   8.437   7.379  1.00  0.00    +0.206 C 
ATOM     14  O   UNL     1     -29.383   8.258   7.741  1.00  0.00    -0.288 OA
ENDROOT
TORSDOF 0
ENDMDL
MODEL 5
REMARK VINA RESULT:    -7.446      2.114      3.014
REMARK INTER + INTRA:          -7.446
REMARK INTER:                  -7.446
REMARK INTRA:                   0.000
REMARK UNBOUND:                 0.000
REMARK SMILES O=C1C(Cl)=C(Cl)C(=O)c2ccccc21
REMARK SMILES IDX 6 1 5 2 3 3 4 4 2 5 1 6 14 7 9 8 10 9 11 10 12 11 13 12 7 13
REMARK SMILES IDX 8 14
REMARK H PARENT
ROOT
ATOM      1 Cl   UNL     1     -26.239  11.982   5.441  1.00  0.00    -0.078 Cl
ATOM      2  C   UNL     1     -27.241  10.724   6.088  1.00  0.00    +0.111 C 
ATOM      3  C   UNL     1     -26.748   9.566   6.545  1.00  0.00    +0.111 C 
ATOM      4 Cl   UNL     1     -25.054   9.199   6.540  1.00  0.00    -0.078 Cl
ATOM      5  C   UNL     1     -27.635   8.507   7.095  1.00  0.00    +0.206 C 
ATOM      6  O   UNL     1     -27.204   7.440   7.519  1.00  0.00    -0.288 OA
ATOM      7  C   UNL     1     -29.086   8.768   7.123  1.00  0.00    +0.035 A 
ATOM      8  C   UNL     1     -29.598   9.972   6.647  1.00  0.00    +0.035 A 
ATOM      9  C   UNL     1     -30.981  10.204   6.682  1.00  0.00    +0.013 A 
ATOM     10  C   UNL     1     -31.843   9.232   7.191  1.00  0.00    +0.001 A 
ATOM     11  C   UNL     1     -31.330   8.027   7.666  1.00  0.00    +0.001 A 
ATOM     12  C   UNL     1     -29.954   7.793   7.634  1.00  0.00    +0.013 A 
ATOM     13  C   UNL     1     -28.701  11.009   6.107  1.00  0.00    +0.206 C 
ATOM     14  O   UNL     1     -29.172  12.063   5.693  1.00  0.00    -0.288 OA
ENDROOT
TORSDOF 0
ENDMDL
MODEL 6
REMARK VINA RESULT:    -6.851      3.031      4.551
REMARK INTER + INTRA:          -6.851
REMARK INTER:                  -6.851
REMARK INTRA:                   0.000
REMARK UNBOUND:                 0.000
REMARK SMILES O=C1C(Cl)=C(Cl)C(=O)c2ccccc21
REMARK SMILES IDX 6 1 5 2 3 3 4 4 2 5 1 6 14 7 9 8 10 9 11 10 12 11 13 12 7 13
REMARK SMILES IDX 8 14
REMARK H PARENT
ROOT
ATOM      1 Cl   UNL     1     -28.919  11.599   5.899  1.00  0.00    -0.078 Cl
ATOM      2  C   UNL     1     -29.149  10.056   6.655  1.00  0.00    +0.111 C 
ATOM      3  C   UNL     1     -28.132   9.313   7.111  1.00  0.00    +0.111 C 
ATOM      4 Cl   UNL     1     -26.476   9.815   6.997  1.00  0.00    -0.078 Cl
ATOM      5  C   UNL     1     -28.362   7.993   7.755  1.00  0.00    +0.206 C 
ATOM      6  O   UNL     1     -27.446   7.298   8.180  1.00  0.00    -0.288 OA
ATOM      7  C   UNL     1     -29.753   7.518   7.877  1.00  0.00    +0.035 A 
ATOM      8  C   UNL     1     -30.808   8.290   7.403  1.00  0.00    +0.035 A 
ATOM      9  C   UNL     1     -32.126   7.824   7.528  1.00  0.00    +0.013 A 
ATOM     10  C   UNL     1     -32.378   6.589   8.126  1.00  0.00    +0.001 A 
ATOM     11  C   UNL     1     -31.321   5.817   8.601  1.00  0.00    +0.001 A 
ATOM     12  C   UNL     1     -30.010   6.278   8.478  1.00  0.00    +0.013 A 
ATOM     13  C   UNL     1     -30.559   9.597   6.768  1.00  0.00    +0.206 C 
ATOM     14  O   UNL     1     -31.503  10.263   6.356  1.00  0.00    -0.288 OA
ENDROOT
TORSDOF 0
ENDMDL
MODEL 7
REMARK VINA RESULT:    -6.798      8.804     10.603
REMARK INTER + INTRA:          -6.798
REMARK INTER:                  -6.798
REMARK INTRA:                   0.000
REMARK UNBOUND:                 0.000
REMARK SMILES O=C1C(Cl)=C(Cl)C(=O)c2ccccc21
REMARK SMILES IDX 6 1 5 2 3 3 4 4 2 5 1 6 14 7 9 8 10 9 11 10 12 11 13 12 7 13
REMARK SMILES IDX 8 14
REMARK H PARENT
ROOT
ATOM      1 Cl   UNL     1     -32.512   2.957   9.879  1.00  0.00    -0.078 Cl
ATOM      2  C   UNL     1     -34.001   3.811   9.638  1.00  0.00    +0.111 C 
ATOM      3  C   UNL     1     -34.092   4.913   8.883  1.00  0.00    +0.111 C 
ATOM      4 Cl   UNL     1     -32.730   5.605   8.063  1.00  0.00    -0.078 Cl
ATOM      5  C   UNL     1     -35.385   5.622   8.695  1.00  0.00    +0.206 C 
ATOM      6  O   UNL     1     -35.490   6.632   8.008  1.00  0.00    -0.288 OA
ATOM      7  C   UNL     1     -36.576   5.075   9.372  1.00  0.00    +0.035 A 
ATOM      8  C   UNL     1     -36.481   3.931  10.156  1.00  0.00    +0.035 A 
ATOM      9  C   UNL     1     -37.624   3.423  10.792  1.00  0.00    +0.013 A 
ATOM     10  C   UNL     1     -38.854   4.064  10.638  1.00  0.00    +0.001 A 
ATOM     11  C   UNL     1     -38.949   5.210   9.852  1.00  0.00    +0.001 A 
ATOM     12  C   UNL     1     -37.813   5.717   9.219  1.00  0.00    +0.013 A 
ATOM     13  C   UNL     1     -35.189   3.242  10.328  1.00  0.00    +0.206 C 
ATOM     14  O   UNL     1     -35.126   2.234  11.024  1.00  0.00    -0.288 OA
ENDROOT
TORSDOF 0
ENDMDL
MODEL 8
REMARK VINA RESULT:    -6.576      8.262      9.985
REMARK INTER + INTRA:          -6.576
REMARK INTER:                  -6.576
REMARK INTRA:                   0.000
REMARK UNBOUND:                 0.000
REMARK SMILES O=C1C(Cl)=C(Cl)C(=O)c2ccccc21
REMARK SMILES IDX 6 1 5 2 3 3 4 4 2 5 1 6 14 7 9 8 10 9 11 10 12 11 13 12 7 13
REMARK SMILES IDX 8 14
REMARK H PARENT
ROOT
ATOM      1 Cl   UNL     1     -24.809  -2.412   9.635  1.00  0.00    -0.078 Cl
ATOM      2  C   UNL     1     -24.545  -0.723   9.924  1.00  0.00    +0.111 C 
ATOM      3  C   UNL     1     -23.389  -0.239  10.393  1.00  0.00    +0.111 C 
ATOM      4 Cl   UNL     1     -22.028  -1.247  10.762  1.00  0.00    -0.078 Cl
ATOM      5  C   UNL     1     -23.195   1.217  10.629  1.00  0.00    +0.206 C 
ATOM      6  O   UNL     1     -22.144   1.681  11.058  1.00  0.00    -0.288 OA
ATOM      7  C   UNL     1     -24.322   2.120  10.331  1.00  0.00    +0.035 A 
ATOM      8  C   UNL     1     -25.523   1.616   9.843  1.00  0.00    +0.035 A 
ATOM      9  C   UNL     1     -26.585   2.489   9.564  1.00  0.00    +0.013 A 
ATOM     10  C   UNL     1     -26.438   3.861   9.774  1.00  0.00    +0.001 A 
ATOM     11  C   UNL     1     -25.234   4.365  10.262  1.00  0.00    +0.001 A 
ATOM     12  C   UNL     1     -24.177   3.498  10.541  1.00  0.00    +0.013 A 
ATOM     13  C   UNL     1     -25.694   0.170   9.615  1.00  0.00    +0.206 C 
ATOM     14  O   UNL     1     -26.761  -0.255   9.185  1.00  0.00    -0.288 OA
ENDROOT
TORSDOF 0
ENDMDL
MODEL 9
REMARK VINA RESULT:    -6.170      8.657     10.295
REMARK INTER + INTRA:          -6.170
REMARK INTER:                  -6.170
REMARK INTRA:                   0.000
REMARK UNBOUND:                 0.000
REMARK SMILES O=C1C(Cl)=C(Cl)C(=O)c2ccccc21
REMARK SMILES IDX 6 1 5 2 3 3 4 4 2 5 1 6 14 7 9 8 10 9 11 10 12 11 13 12 7 13
REMARK SMILES IDX 8 14
REMARK H PARENT
ROOT
ATOM      1 Cl   UNL     1     -23.237   1.156   9.585  1.00  0.00    -0.078 Cl
ATOM      2  C   UNL     1     -24.616   1.477  10.585  1.00  0.00    +0.111 C 
ATOM      3  C   UNL     1     -24.959   2.712  10.973  1.00  0.00    +0.111 C 
ATOM      4 Cl   UNL     1     -24.062   4.124  10.518  1.00  0.00    -0.078 Cl
ATOM      5  C   UNL     1     -26.150   2.954  11.831  1.00  0.00    +0.206 C 
ATOM      6  O   UNL     1     -26.480   4.077  12.197  1.00  0.00    -0.288 OA
ATOM      7  C   UNL     1     -26.948   1.787  12.248  1.00  0.00    +0.035 A 
ATOM      8  C   UNL     1     -26.591   0.504  11.844  1.00  0.00    +0.035 A 
ATOM      9  C   UNL     1     -27.363  -0.595  12.249  1.00  0.00    +0.013 A 
ATOM     10  C   UNL     1     -28.486  -0.404  13.055  1.00  0.00    +0.001 A 
ATOM     11  C   UNL     1     -28.843   0.880  13.458  1.00  0.00    +0.001 A 
ATOM     12  C   UNL     1     -28.077   1.976  13.057  1.00  0.00    +0.013 A 
ATOM     13  C   UNL     1     -25.408   0.286  10.993  1.00  0.00    +0.206 C 
ATOM     14  O   UNL     1     -25.110  -0.852  10.648  1.00  0.00    -0.288 OA
ENDROOT
TORSDOF 0
ENDMDL
