MODEL 1
REMARK VINA RESULT:    -8.485      0.000      0.000
REMARK INTER + INTRA:         -10.247
REMARK INTER:                  -9.973
REMARK INTRA:                  -0.274
REMARK UNBOUND:                -0.274
REMARK SMILES Cc1nc(NC(C)(C)C)c2cnn(-c3ccccc3)c2n1
REMARK SMILES IDX 5 1 4 3 2 4 3 5 21 6 20 7 10 8 13 9 11 10 12 11 1 12 14 13
REMARK SMILES IDX 15 14 19 15 16 16 18 17 17 18 6 19 7 20 8 21 9 22
REMARK H PARENT 5 2
ROOT
ATOM      1  N   UNL     1     -27.334   0.576  11.823  1.00  0.00    -0.365 N 
ATOM      2  H   UNL     1     -27.173   0.498  12.820  1.00  0.00    +0.162 HD
ENDROOT
BRANCH   1   3
ATOM      3  C   UNL     1     -26.542   1.550  11.231  1.00  0.00    +0.141 A 
ATOM      4  C   UNL     1     -24.451   2.514  10.806  1.00  0.00    +0.130 A 
ATOM      5  N   UNL     1     -25.202   1.562  11.398  1.00  0.00    -0.216 NA
ATOM      6  N   UNL     1     -24.902   3.522  10.042  1.00  0.00    -0.213 NA
ATOM      7  C   UNL     1     -26.238   3.497   9.872  1.00  0.00    +0.168 A 
ATOM      8  C   UNL     1     -27.093   2.557  10.425  1.00  0.00    +0.082 A 
ATOM      9  N   UNL     1     -27.035   4.373   9.133  1.00  0.00    -0.215 N 
ATOM     10  C   UNL     1     -28.367   2.924   9.967  1.00  0.00    +0.150 A 
ATOM     11  N   UNL     1     -28.356   4.013   9.201  1.00  0.00    -0.174 NA
ATOM     12  C   UNL     1     -22.978   2.467  11.070  1.00  0.00    +0.090 C 
BRANCH   9  13
ATOM     13  C   UNL     1     -26.659   5.521   8.369  1.00  0.00    +0.067 A 
ATOM     14  C   UNL     1     -25.387   5.650   7.796  1.00  0.00    +0.028 A 
ATOM     15  C   UNL     1     -27.593   6.557   8.183  1.00  0.00    +0.028 A 
ATOM     16  C   UNL     1     -25.058   6.791   7.056  1.00  0.00    +0.002 A 
ATOM     17  C   UNL     1     -27.258   7.693   7.443  1.00  0.00    +0.002 A 
ATOM     18  C   UNL     1     -25.991   7.809   6.879  1.00  0.00    +0.000 A 
ENDBRANCH   9  13
ENDBRANCH   1   3
BRANCH   1  19
ATOM     19  C   UNL     1     -27.681  -0.693  11.164  1.00  0.00    +0.030 C 
ATOM     20  C   UNL     1     -29.172  -0.761  10.808  1.00  0.00    +0.034 C 
ATOM     21  C   UNL     1     -27.397  -1.810  12.193  1.00  0.00    +0.034 C 
ATOM     22  C   UNL     1     -26.799  -0.944   9.933  1.00  0.00    +0.034 C 
ENDBRANCH   1  19
TORSDOF 3
ENDMDL
MODEL 2
REMARK VINA RESULT:    -8.413      4.904      8.658
REMARK INTER + INTRA:         -10.162
REMARK INTER:                  -9.866
REMARK INTRA:                  -0.297
REMARK UNBOUND:                -0.274
REMARK SMILES Cc1nc(NC(C)(C)C)c2cnn(-c3ccccc3)c2n1
REMARK SMILES IDX 5 1 4 3 2 4 3 5 21 6 20 7 10 8 13 9 11 10 12 11 1 12 14 13
REMARK SMILES IDX 15 14 19 15 16 16 18 17 17 18 6 19 7 20 8 21 9 22
REMARK H PARENT 5 2
ROOT
ATOM      1  N   UNL     1     -27.696  10.361   6.926  1.00  0.00    -0.365 N 
ATOM      2  H   UNL     1     -28.364  11.100   7.114  1.00  0.00    +0.162 HD
ENDROOT
BRANCH   1   3
ATOM      3  C   UNL     1     -28.157   9.114   7.323  1.00  0.00    +0.141 A 
ATOM      4  C   UNL     1     -27.776   6.941   8.105  1.00  0.00    +0.130 A 
ATOM      5  N   UNL     1     -27.304   8.143   7.716  1.00  0.00    -0.216 NA
ATOM      6  N   UNL     1     -29.063   6.561   8.131  1.00  0.00    -0.213 NA
ATOM      7  C   UNL     1     -29.908   7.538   7.746  1.00  0.00    +0.168 A 
ATOM      8  C   UNL     1     -29.525   8.807   7.343  1.00  0.00    +0.082 A 
ATOM      9  N   UNL     1     -31.301   7.500   7.670  1.00  0.00    -0.215 N 
ATOM     10  C   UNL     1     -30.730   9.466   7.056  1.00  0.00    +0.150 A 
ATOM     11  N   UNL     1     -31.803   8.699   7.236  1.00  0.00    -0.174 NA
ATOM     12  C   UNL     1     -26.757   5.915   8.497  1.00  0.00    +0.090 C 
BRANCH   9  13
ATOM     13  C   UNL     1     -32.200   6.429   7.968  1.00  0.00    +0.067 A 
ATOM     14  C   UNL     1     -32.090   5.669   9.140  1.00  0.00    +0.028 A 
ATOM     15  C   UNL     1     -33.229   6.125   7.059  1.00  0.00    +0.028 A 
ATOM     16  C   UNL     1     -32.990   4.629   9.395  1.00  0.00    +0.002 A 
ATOM     17  C   UNL     1     -34.124   5.084   7.319  1.00  0.00    +0.002 A 
ATOM     18  C   UNL     1     -34.005   4.337   8.487  1.00  0.00    +0.000 A 
ENDBRANCH   9  13
ENDBRANCH   1   3
BRANCH   1  19
ATOM     19  C   UNL     1     -26.881  10.575   5.721  1.00  0.00    +0.030 C 
ATOM     20  C   UNL     1     -27.028   9.420   4.721  1.00  0.00    +0.034 C 
ATOM     21  C   UNL     1     -25.409  10.601   6.188  1.00  0.00    +0.034 C 
ATOM     22  C   UNL     1     -27.195  11.927   5.064  1.00  0.00    +0.034 C 
ENDBRANCH   1  19
TORSDOF 3
ENDMDL
MODEL 3
REMARK VINA RESULT:    -8.322      2.448      5.709
REMARK INTER + INTRA:         -10.056
REMARK INTER:                  -9.571
REMARK INTRA:                  -0.484
REMARK UNBOUND:                -0.274
REMARK SMILES Cc1nc(NC(C)(C)C)c2cnn(-c3ccccc3)c2n1
REMARK SMILES IDX 5 1 4 3 2 4 3 5 21 6 20 7 10 8 13 9 11 10 12 11 1 12 14 13
REMARK SMILES IDX 15 14 19 15 16 16 18 17 17 18 6 19 7 20 8 21 9 22
REMARK H PARENT 5 2
ROOT
ATOM      1  N   UNL     1     -24.424   0.596   9.175  1.00  0.00    -0.365 N 
ATOM      2  H   UNL     1     -24.624  -0.272   8.690  1.00  0.00    +0.162 HD
ENDROOT
BRANCH   1   3
ATOM      3  C   UNL     1     -25.565   1.351   9.405  1.00  0.00    +0.141 A 
ATOM      4  C   UNL     1     -26.700   3.399   9.420  1.00  0.00    +0.130 A 
ATOM      5  N   UNL     1     -25.576   2.686   9.196  1.00  0.00    -0.216 NA
ATOM      6  N   UNL     1     -27.870   2.920   9.870  1.00  0.00    -0.213 NA
ATOM      7  C   UNL     1     -27.853   1.587  10.067  1.00  0.00    +0.168 A 
ATOM      8  C   UNL     1     -26.757   0.766   9.854  1.00  0.00    +0.082 A 
ATOM      9  N   UNL     1     -28.888   0.762  10.509  1.00  0.00    -0.215 N 
ATOM     10  C   UNL     1     -27.212  -0.522  10.176  1.00  0.00    +0.150 A 
ATOM     11  N   UNL     1     -28.481  -0.545  10.579  1.00  0.00    -0.174 NA
ATOM     12  C   UNL     1     -26.614   4.876   9.189  1.00  0.00    +0.090 C 
BRANCH   9  13
ATOM     13  C   UNL     1     -30.228   1.099  10.874  1.00  0.00    +0.067 A 
ATOM     14  C   UNL     1     -31.103   1.741   9.988  1.00  0.00    +0.028 A 
ATOM     15  C   UNL     1     -30.689   0.778  12.165  1.00  0.00    +0.028 A 
ATOM     16  C   UNL     1     -32.407   2.055  10.384  1.00  0.00    +0.002 A 
ATOM     17  C   UNL     1     -31.992   1.094  12.555  1.00  0.00    +0.002 A 
ATOM     18  C   UNL     1     -32.851   1.732  11.664  1.00  0.00    +0.000 A 
ENDBRANCH   9  13
ENDBRANCH   1   3
BRANCH   1  19
ATOM     19  C   UNL     1     -23.304   0.514  10.124  1.00  0.00    +0.030 C 
ATOM     20  C   UNL     1     -22.050   1.219   9.588  1.00  0.00    +0.034 C 
ATOM     21  C   UNL     1     -22.966  -0.986  10.274  1.00  0.00    +0.034 C 
ATOM     22  C   UNL     1     -23.701   1.053  11.506  1.00  0.00    +0.034 C 
ENDBRANCH   1  19
TORSDOF 3
ENDMDL
MODEL 4
REMARK VINA RESULT:    -8.224      6.055      9.159
REMARK INTER + INTRA:          -9.940
REMARK INTER:                  -9.372
REMARK INTRA:                  -0.568
REMARK UNBOUND:                -0.274
REMARK SMILES Cc1nc(NC(C)(C)C)c2cnn(-c3ccccc3)c2n1
REMARK SMILES IDX 5 1 4 3 2 4 3 5 21 6 20 7 10 8 13 9 11 10 12 11 1 12 14 13
REMARK SMILES IDX 15 14 19 15 16 16 18 17 17 18 6 19 7 20 8 21 9 22
REMARK H PARENT 5 2
ROOT
ATOM      1  N   UNL     1     -36.366   4.666   9.269  1.00  0.00    -0.365 N 
ATOM      2  H   UNL     1     -36.613   5.081   8.379  1.00  0.00    +0.162 HD
ENDROOT
BRANCH   1   3
ATOM      3  C   UNL     1     -35.014   4.363   9.357  1.00  0.00    +0.141 A 
ATOM      4  C   UNL     1     -32.761   4.949   9.110  1.00  0.00    +0.130 A 
ATOM      5  N   UNL     1     -34.070   5.263   9.008  1.00  0.00    -0.216 NA
ATOM      6  N   UNL     1     -32.254   3.777   9.520  1.00  0.00    -0.213 NA
ATOM      7  C   UNL     1     -33.202   2.888   9.875  1.00  0.00    +0.168 A 
ATOM      8  C   UNL     1     -34.567   3.117   9.820  1.00  0.00    +0.082 A 
ATOM      9  N   UNL     1     -33.036   1.589  10.360  1.00  0.00    -0.215 N 
ATOM     10  C   UNL     1     -35.145   1.930  10.293  1.00  0.00    +0.150 A 
ATOM     11  N   UNL     1     -34.248   1.000  10.612  1.00  0.00    -0.174 NA
ATOM     12  C   UNL     1     -31.784   5.998   8.674  1.00  0.00    +0.090 C 
BRANCH   9  13
ATOM     13  C   UNL     1     -31.834   0.855  10.604  1.00  0.00    +0.067 A 
ATOM     14  C   UNL     1     -31.322  -0.064   9.679  1.00  0.00    +0.028 A 
ATOM     15  C   UNL     1     -31.139   1.060  11.810  1.00  0.00    +0.028 A 
ATOM     16  C   UNL     1     -30.143  -0.763   9.957  1.00  0.00    +0.002 A 
ATOM     17  C   UNL     1     -29.962   0.359  12.081  1.00  0.00    +0.002 A 
ATOM     18  C   UNL     1     -29.464  -0.552  11.154  1.00  0.00    +0.000 A 
ENDBRANCH   9  13
ENDBRANCH   1   3
BRANCH   1  19
ATOM     19  C   UNL     1     -37.160   5.153  10.407  1.00  0.00    +0.030 C 
ATOM     20  C   UNL     1     -37.999   4.033  11.037  1.00  0.00    +0.034 C 
ATOM     21  C   UNL     1     -38.139   6.204   9.838  1.00  0.00    +0.034 C 
ATOM     22  C   UNL     1     -36.274   5.845  11.452  1.00  0.00    +0.034 C 
ENDBRANCH   1  19
TORSDOF 3
ENDMDL
MODEL 5
REMARK VINA RESULT:    -7.824      2.059      3.632
REMARK INTER + INTRA:          -9.470
REMARK INTER:                  -8.931
REMARK INTRA:                  -0.539
REMARK UNBOUND:                -0.274
REMARK SMILES Cc1nc(NC(C)(C)C)c2cnn(-c3ccccc3)c2n1
REMARK SMILES IDX 5 1 4 3 2 4 3 5 21 6 20 7 10 8 13 9 11 10 12 11 1 12 14 13
REMARK SMILES IDX 15 14 19 15 16 16 18 17 17 18 6 19 7 20 8 21 9 22
REMARK H PARENT 5 2
ROOT
ATOM      1  N   UNL     1     -28.116  -1.887  13.467  1.00  0.00    -0.365 N 
ATOM      2  H   UNL     1     -27.506  -2.514  13.977  1.00  0.00    +0.162 HD
ENDROOT
BRANCH   1   3
ATOM      3  C   UNL     1     -27.468  -1.251  12.418  1.00  0.00    +0.141 A 
ATOM      4  C   UNL     1     -26.222  -1.314  10.437  1.00  0.00    +0.130 A 
ATOM      5  N   UNL     1     -26.839  -1.954  11.451  1.00  0.00    -0.216 NA
ATOM      6  N   UNL     1     -26.134   0.015  10.271  1.00  0.00    -0.213 NA
ATOM      7  C   UNL     1     -26.771   0.710  11.235  1.00  0.00    +0.168 A 
ATOM      8  C   UNL     1     -27.443   0.147  12.307  1.00  0.00    +0.082 A 
ATOM      9  N   UNL     1     -26.897   2.093  11.368  1.00  0.00    -0.215 N 
ATOM     10  C   UNL     1     -27.949   1.243  13.023  1.00  0.00    +0.150 A 
ATOM     11  N   UNL     1     -27.625   2.416  12.483  1.00  0.00    -0.174 NA
ATOM     12  C   UNL     1     -25.527  -2.172   9.425  1.00  0.00    +0.090 C 
BRANCH   9  13
ATOM     13  C   UNL     1     -26.388   3.138  10.535  1.00  0.00    +0.067 A 
ATOM     14  C   UNL     1     -25.134   3.722  10.756  1.00  0.00    +0.028 A 
ATOM     15  C   UNL     1     -27.168   3.597   9.458  1.00  0.00    +0.028 A 
ATOM     16  C   UNL     1     -24.673   4.743   9.919  1.00  0.00    +0.002 A 
ATOM     17  C   UNL     1     -26.701   4.617   8.625  1.00  0.00    +0.002 A 
ATOM     18  C   UNL     1     -25.454   5.189   8.856  1.00  0.00    +0.000 A 
ENDBRANCH   9  13
ENDBRANCH   1   3
BRANCH   1  19
ATOM     19  C   UNL     1     -29.519  -2.327  13.401  1.00  0.00    +0.030 C 
ATOM     20  C   UNL     1     -30.289  -1.966  14.679  1.00  0.00    +0.034 C 
ATOM     21  C   UNL     1     -29.489  -3.868  13.296  1.00  0.00    +0.034 C 
ATOM     22  C   UNL     1     -30.220  -1.778  12.151  1.00  0.00    +0.034 C 
ENDBRANCH   1  19
TORSDOF 3
ENDMDL
MODEL 6
REMARK VINA RESULT:    -7.658      3.459      8.087
REMARK INTER + INTRA:          -9.275
REMARK INTER:                  -9.215
REMARK INTRA:                  -0.061
REMARK UNBOUND:                -0.274
REMARK SMILES Cc1nc(NC(C)(C)C)c2cnn(-c3ccccc3)c2n1
REMARK SMILES IDX 5 1 4 3 2 4 3 5 21 6 20 7 10 8 13 9 11 10 12 11 1 12 14 13
REMARK SMILES IDX 15 14 19 15 16 16 18 17 17 18 6 19 7 20 8 21 9 22
REMARK H PARENT 5 2
ROOT
ATOM      1  N   UNL     1     -30.428   9.535   6.571  1.00  0.00    -0.365 N 
ATOM      2  H   UNL     1     -29.822   9.647   5.767  1.00  0.00    +0.162 HD
ENDROOT
BRANCH   1   3
ATOM      3  C   UNL     1     -30.184   8.358   7.263  1.00  0.00    +0.141 A 
ATOM      4  C   UNL     1     -30.932   6.486   8.455  1.00  0.00    +0.130 A 
ATOM      5  N   UNL     1     -31.193   7.633   7.793  1.00  0.00    -0.216 NA
ATOM      6  N   UNL     1     -29.719   5.957   8.682  1.00  0.00    -0.213 NA
ATOM      7  C   UNL     1     -28.719   6.681   8.142  1.00  0.00    +0.168 A 
ATOM      8  C   UNL     1     -28.884   7.861   7.435  1.00  0.00    +0.082 A 
ATOM      9  N   UNL     1     -27.348   6.421   8.168  1.00  0.00    -0.215 N 
ATOM     10  C   UNL     1     -27.584   8.236   7.064  1.00  0.00    +0.150 A 
ATOM     11  N   UNL     1     -26.650   7.394   7.500  1.00  0.00    -0.174 NA
ATOM     12  C   UNL     1     -32.108   5.763   9.034  1.00  0.00    +0.090 C 
BRANCH   9  13
ATOM     13  C   UNL     1     -26.639   5.335   8.769  1.00  0.00    +0.067 A 
ATOM     14  C   UNL     1     -25.315   5.464   9.210  1.00  0.00    +0.028 A 
ATOM     15  C   UNL     1     -27.287   4.096   8.925  1.00  0.00    +0.028 A 
ATOM     16  C   UNL     1     -24.656   4.376   9.792  1.00  0.00    +0.002 A 
ATOM     17  C   UNL     1     -26.623   3.014   9.507  1.00  0.00    +0.002 A 
ATOM     18  C   UNL     1     -25.308   3.154   9.941  1.00  0.00    +0.000 A 
ENDBRANCH   9  13
ENDBRANCH   1   3
BRANCH   1  19
ATOM     19  C   UNL     1     -30.798  10.798   7.231  1.00  0.00    +0.030 C 
ATOM     20  C   UNL     1     -32.029  10.630   8.132  1.00  0.00    +0.034 C 
ATOM     21  C   UNL     1     -31.176  11.784   6.104  1.00  0.00    +0.034 C 
ATOM     22  C   UNL     1     -29.614  11.391   8.006  1.00  0.00    +0.034 C 
ENDBRANCH   1  19
TORSDOF 3
ENDMDL
MODEL 7
REMARK VINA RESULT:    -7.364      2.613      4.602
REMARK INTER + INTRA:          -8.929
REMARK INTER:                  -8.919
REMARK INTRA:                  -0.010
REMARK UNBOUND:                -0.274
REMARK SMILES Cc1nc(NC(C)(C)C)c2cnn(-c3ccccc3)c2n1
REMARK SMILES IDX 5 1 4 3 2 4 3 5 21 6 20 7 10 8 13 9 11 10 12 11 1 12 14 13
REMARK SMILES IDX 15 14 19 15 16 16 18 17 17 18 6 19 7 20 8 21 9 22
REMARK H PARENT 5 2
ROOT
ATOM      1  N   UNL     1     -30.495  -0.820  13.640  1.00  0.00    -0.365 N 
ATOM      2  H   UNL     1     -30.083  -0.568  14.530  1.00  0.00    +0.162 HD
ENDROOT
BRANCH   1   3
ATOM      3  C   UNL     1     -30.231   0.113  12.648  1.00  0.00    +0.141 A 
ATOM      4  C   UNL     1     -30.909   1.415  10.824  1.00  0.00    +0.130 A 
ATOM      5  N   UNL     1     -31.187   0.500  11.775  1.00  0.00    -0.216 NA
ATOM      6  N   UNL     1     -29.724   2.008  10.612  1.00  0.00    -0.213 NA
ATOM      7  C   UNL     1     -28.778   1.623  11.491  1.00  0.00    +0.168 A 
ATOM      8  C   UNL     1     -28.966   0.703  12.510  1.00  0.00    +0.082 A 
ATOM      9  N   UNL     1     -27.450   2.045  11.577  1.00  0.00    -0.215 N 
ATOM     10  C   UNL     1     -27.726   0.637  13.161  1.00  0.00    +0.150 A 
ATOM     11  N   UNL     1     -26.802   1.424  12.613  1.00  0.00    -0.174 NA
ATOM     12  C   UNL     1     -32.021   1.764   9.883  1.00  0.00    +0.090 C 
BRANCH   9  13
ATOM     13  C   UNL     1     -26.738   2.981  10.765  1.00  0.00    +0.067 A 
ATOM     14  C   UNL     1     -25.479   3.475  11.127  1.00  0.00    +0.028 A 
ATOM     15  C   UNL     1     -27.317   3.423   9.561  1.00  0.00    +0.028 A 
ATOM     16  C   UNL     1     -24.815   4.391  10.305  1.00  0.00    +0.002 A 
ATOM     17  C   UNL     1     -26.650   4.339   8.744  1.00  0.00    +0.002 A 
ATOM     18  C   UNL     1     -25.399   4.822   9.116  1.00  0.00    +0.000 A 
ENDBRANCH   9  13
ENDBRANCH   1   3
BRANCH   1  19
ATOM     19  C   UNL     1     -30.558  -2.269  13.390  1.00  0.00    +0.030 C 
ATOM     20  C   UNL     1     -31.664  -2.626  12.386  1.00  0.00    +0.034 C 
ATOM     21  C   UNL     1     -30.922  -2.929  14.738  1.00  0.00    +0.034 C 
ATOM     22  C   UNL     1     -29.197  -2.819  12.943  1.00  0.00    +0.034 C 
ENDBRANCH   1  19
TORSDOF 3
ENDMDL
MODEL 8
REMARK VINA RESULT:    -7.114      3.592      5.901
REMARK INTER + INTRA:          -8.635
REMARK INTER:                  -8.048
REMARK INTRA:                  -0.587
REMARK UNBOUND:                -0.274
REMARK SMILES Cc1nc(NC(C)(C)C)c2cnn(-c3ccccc3)c2n1
REMARK SMILES IDX 5 1 4 3 2 4 3 5 21 6 20 7 10 8 13 9 11 10 12 11 1 12 14 13
REMARK SMILES IDX 15 14 19 15 16 16 18 17 17 18 6 19 7 20 8 21 9 22
REMARK H PARENT 5 2
ROOT
ATOM      1  N   UNL     1     -31.024  -2.261  14.152  1.00  0.00    -0.365 N 
ATOM      2  H   UNL     1     -31.010  -1.796  15.052  1.00  0.00    +0.162 HD
ENDROOT
BRANCH   1   3
ATOM      3  C   UNL     1     -30.407  -1.515  13.158  1.00  0.00    +0.141 A 
ATOM      4  C   UNL     1     -30.279  -0.750  10.949  1.00  0.00    +0.130 A 
ATOM      5  N   UNL     1     -30.891  -1.489  11.897  1.00  0.00    -0.216 NA
ATOM      6  N   UNL     1     -29.170  -0.010  11.109  1.00  0.00    -0.213 NA
ATOM      7  C   UNL     1     -28.698  -0.035  12.371  1.00  0.00    +0.168 A 
ATOM      8  C   UNL     1     -29.261  -0.749  13.416  1.00  0.00    +0.082 A 
ATOM      9  N   UNL     1     -27.585   0.625  12.893  1.00  0.00    -0.215 N 
ATOM     10  C   UNL     1     -28.446  -0.460  14.521  1.00  0.00    +0.150 A 
ATOM     11  N   UNL     1     -27.433   0.352  14.228  1.00  0.00    -0.174 NA
ATOM     12  C   UNL     1     -30.868  -0.802   9.573  1.00  0.00    +0.090 C 
BRANCH   9  13
ATOM     13  C   UNL     1     -26.652   1.490  12.243  1.00  0.00    +0.067 A 
ATOM     14  C   UNL     1     -25.495   1.004  11.620  1.00  0.00    +0.028 A 
ATOM     15  C   UNL     1     -26.898   2.876  12.225  1.00  0.00    +0.028 A 
ATOM     16  C   UNL     1     -24.605   1.885  10.995  1.00  0.00    +0.002 A 
ATOM     17  C   UNL     1     -26.006   3.750  11.600  1.00  0.00    +0.002 A 
ATOM     18  C   UNL     1     -24.860   3.254  10.984  1.00  0.00    +0.000 A 
ENDBRANCH   9  13
ENDBRANCH   1   3
BRANCH   1  19
ATOM     19  C   UNL     1     -30.943  -3.728  14.228  1.00  0.00    +0.030 C 
ATOM     20  C   UNL     1     -32.162  -4.400  13.581  1.00  0.00    +0.034 C 
ATOM     21  C   UNL     1     -30.957  -4.089  15.730  1.00  0.00    +0.034 C 
ATOM     22  C   UNL     1     -29.631  -4.249  13.626  1.00  0.00    +0.034 C 
ENDBRANCH   1  19
TORSDOF 3
ENDMDL
MODEL 9
REMARK VINA RESULT:    -7.005      2.772      5.534
REMARK INTER + INTRA:          -8.507
REMARK INTER:                  -8.114
REMARK INTRA:                  -0.394
REMARK UNBOUND:                -0.274
REMARK SMILES Cc1nc(NC(C)(C)C)c2cnn(-c3ccccc3)c2n1
REMARK SMILES IDX 5 1 4 3 2 4 3 5 21 6 20 7 10 8 13 9 11 10 12 11 1 12 14 13
REMARK SMILES IDX 15 14 19 15 16 16 18 17 17 18 6 19 7 20 8 21 9 22
REMARK H PARENT 5 2
ROOT
ATOM      1  N   UNL     1     -25.313  -1.234  11.042  1.00  0.00    -0.365 N 
ATOM      2  H   UNL     1     -24.492  -0.934  11.556  1.00  0.00    +0.162 HD
ENDROOT
BRANCH   1   3
ATOM      3  C   UNL     1     -26.214  -0.201  10.831  1.00  0.00    +0.141 A 
ATOM      4  C   UNL     1     -26.708   1.983  10.144  1.00  0.00    +0.130 A 
ATOM      5  N   UNL     1     -25.811   0.995  10.349  1.00  0.00    -0.216 NA
ATOM      6  N   UNL     1     -28.025   1.926  10.395  1.00  0.00    -0.213 NA
ATOM      7  C   UNL     1     -28.421   0.728  10.866  1.00  0.00    +0.168 A 
ATOM      8  C   UNL     1     -27.583  -0.351  11.098  1.00  0.00    +0.082 A 
ATOM      9  N   UNL     1     -29.707   0.314  11.214  1.00  0.00    -0.215 N 
ATOM     10  C   UNL     1     -28.432  -1.365  11.566  1.00  0.00    +0.150 A 
ATOM     11  N   UNL     1     -29.705  -0.985  11.652  1.00  0.00    -0.174 NA
ATOM     12  C   UNL     1     -26.168   3.284   9.635  1.00  0.00    +0.090 C 
BRANCH   9  13
ATOM     13  C   UNL     1     -30.939   1.038  11.171  1.00  0.00    +0.067 A 
ATOM     14  C   UNL     1     -31.308   1.815  10.066  1.00  0.00    +0.028 A 
ATOM     15  C   UNL     1     -31.813   0.970  12.272  1.00  0.00    +0.028 A 
ATOM     16  C   UNL     1     -32.522   2.510  10.064  1.00  0.00    +0.002 A 
ATOM     17  C   UNL     1     -33.024   1.666  12.264  1.00  0.00    +0.002 A 
ATOM     18  C   UNL     1     -33.378   2.435  11.160  1.00  0.00    +0.000 A 
ENDBRANCH   9  13
ENDBRANCH   1   3
BRANCH   1  19
ATOM     19  C   UNL     1     -25.056  -2.296  10.057  1.00  0.00    +0.030 C 
ATOM     20  C   UNL     1     -25.734  -2.000   8.711  1.00  0.00    +0.034 C 
ATOM     21  C   UNL     1     -25.694  -3.582  10.626  1.00  0.00    +0.034 C 
ATOM     22  C   UNL     1     -23.552  -2.546   9.883  1.00  0.00    +0.034 C 
ENDBRANCH   1  19
TORSDOF 3
ENDMDL
