MODEL 1
REMARK VINA RESULT:    -8.711      0.000      0.000
REMARK INTER + INTRA:         -10.821
REMARK INTER:                 -10.493
REMARK INTRA:                  -0.328
REMARK UNBOUND:                -0.328
REMARK SMILES O=[N+]([O-])c1ccc(C=Nc2ccc(O)cc2)cc1
REMARK SMILES IDX 9 1 8 2 10 3 13 4 12 5 15 6 11 7 16 8 14 9 7 11 6 12 17 13
REMARK SMILES IDX 5 14 18 15 4 16 2 17 1 18 3 19
REMARK H PARENT 14 10
ROOT
ATOM      1  N   UNL     1     -27.909   8.987   7.413  1.00  0.00    -0.256 NA
ATOM      2  C   UNL     1     -26.971   8.200   6.992  1.00  0.00    +0.119 C 
ENDROOT
BRANCH   1   3
ATOM      3  C   UNL     1     -28.052  10.195   6.717  1.00  0.00    +0.063 A 
ATOM      4  C   UNL     1     -28.339  12.616   5.363  1.00  0.00    +0.115 A 
ATOM      5  C   UNL     1     -27.145  11.911   5.266  1.00  0.00    +0.048 A 
ATOM      6  C   UNL     1     -29.391  12.135   6.136  1.00  0.00    +0.048 A 
ATOM      7  C   UNL     1     -27.000  10.703   5.949  1.00  0.00    +0.032 A 
ATOM      8  C   UNL     1     -29.241  10.924   6.816  1.00  0.00    +0.032 A 
BRANCH   4   9
ATOM      9  O   UNL     1     -28.439  13.793   4.682  1.00  0.00    -0.508 OA
ATOM     10  H   UNL     1     -28.062  14.501   5.229  1.00  0.00    +0.293 HD
ENDBRANCH   4   9
ENDBRANCH   1   3
BRANCH   2  11
ATOM     11  C   UNL     1     -26.706   6.896   7.632  1.00  0.00    -0.007 A 
ATOM     12  C   UNL     1     -25.389   6.426   7.685  1.00  0.00    +0.017 A 
ATOM     13  C   UNL     1     -27.752   6.142   8.177  1.00  0.00    +0.017 A 
ATOM     14  C   UNL     1     -25.115   5.194   8.287  1.00  0.00    +0.086 A 
ATOM     15  C   UNL     1     -27.485   4.909   8.780  1.00  0.00    +0.086 A 
ATOM     16  C   UNL     1     -26.164   4.439   8.832  1.00  0.00    +0.269 A 
BRANCH  16  17
ATOM     17  N   UNL     1     -25.877   3.144   9.464  1.00  0.00    +0.062 N 
ATOM     18  O   UNL     1     -26.095   2.120   8.802  1.00  0.00    -0.258 OA
ATOM     19  O   UNL     1     -25.436   3.153  10.622  1.00  0.00    -0.258 OA
ENDBRANCH  16  17
ENDBRANCH   2  11
TORSDOF 4
ENDMDL
MODEL 2
REMARK VINA RESULT:    -8.132      4.467      5.176
REMARK INTER + INTRA:         -10.124
REMARK INTER:                  -9.796
REMARK INTRA:                  -0.328
REMARK UNBOUND:                -0.328
REMARK SMILES O=[N+]([O-])c1ccc(C=Nc2ccc(O)cc2)cc1
REMARK SMILES IDX 9 1 8 2 10 3 13 4 12 5 15 6 11 7 16 8 14 9 7 11 6 12 17 13
REMARK SMILES IDX 5 14 18 15 4 16 2 17 1 18 3 19
REMARK H PARENT 14 10
ROOT
ATOM      1  N   UNL     1     -29.886   8.803   7.323  1.00  0.00    -0.256 NA
ATOM      2  C   UNL     1     -31.061   8.472   6.889  1.00  0.00    +0.119 C 
ENDROOT
BRANCH   1   3
ATOM      3  C   UNL     1     -29.311   9.934   6.729  1.00  0.00    +0.063 A 
ATOM      4  C   UNL     1     -28.165  12.166   5.513  1.00  0.00    +0.115 A 
ATOM      5  C   UNL     1     -29.468  12.237   5.990  1.00  0.00    +0.048 A 
ATOM      6  C   UNL     1     -27.426  10.993   5.625  1.00  0.00    +0.048 A 
ATOM      7  C   UNL     1     -30.043  11.117   6.593  1.00  0.00    +0.032 A 
ATOM      8  C   UNL     1     -28.006   9.875   6.230  1.00  0.00    +0.032 A 
BRANCH   4   9
ATOM      9  O   UNL     1     -27.641  13.282   4.931  1.00  0.00    -0.508 OA
ATOM     10  H   UNL     1     -27.549  13.972   5.608  1.00  0.00    +0.293 HD
ENDBRANCH   4   9
ENDBRANCH   1   3
BRANCH   2  11
ATOM     11  C   UNL     1     -31.785   7.301   7.422  1.00  0.00    -0.007 A 
ATOM     12  C   UNL     1     -31.184   6.537   8.428  1.00  0.00    +0.017 A 
ATOM     13  C   UNL     1     -33.051   6.960   6.932  1.00  0.00    +0.017 A 
ATOM     14  C   UNL     1     -31.852   5.424   8.948  1.00  0.00    +0.086 A 
ATOM     15  C   UNL     1     -33.725   5.849   7.448  1.00  0.00    +0.086 A 
ATOM     16  C   UNL     1     -33.120   5.083   8.456  1.00  0.00    +0.269 A 
BRANCH  16  17
ATOM     17  N   UNL     1     -33.823   3.914   9.001  1.00  0.00    +0.062 N 
ATOM     18  O   UNL     1     -33.344   2.795   8.768  1.00  0.00    -0.258 OA
ATOM     19  O   UNL     1     -34.852   4.116   9.661  1.00  0.00    -0.258 OA
ENDBRANCH  16  17
ENDBRANCH   2  11
TORSDOF 4
ENDMDL
MODEL 3
REMARK VINA RESULT:    -8.086      4.565      5.206
REMARK INTER + INTRA:         -10.068
REMARK INTER:                  -9.745
REMARK INTRA:                  -0.324
REMARK UNBOUND:                -0.328
REMARK SMILES O=[N+]([O-])c1ccc(C=Nc2ccc(O)cc2)cc1
REMARK SMILES IDX 9 1 8 2 10 3 13 4 12 5 15 6 11 7 16 8 14 9 7 11 6 12 17 13
REMARK SMILES IDX 5 14 18 15 4 16 2 17 1 18 3 19
REMARK H PARENT 14 10
ROOT
ATOM      1  N   UNL     1     -30.039   8.805   7.312  1.00  0.00    -0.256 NA
ATOM      2  C   UNL     1     -31.164   8.418   6.801  1.00  0.00    +0.119 C 
ENDROOT
BRANCH   1   3
ATOM      3  C   UNL     1     -29.446   9.922   6.710  1.00  0.00    +0.063 A 
ATOM      4  C   UNL     1     -28.269  12.164   5.542  1.00  0.00    +0.115 A 
ATOM      5  C   UNL     1     -27.528  10.998   5.691  1.00  0.00    +0.048 A 
ATOM      6  C   UNL     1     -29.588  12.232   5.977  1.00  0.00    +0.048 A 
ATOM      7  C   UNL     1     -28.116   9.878   6.281  1.00  0.00    +0.032 A 
ATOM      8  C   UNL     1     -30.173  11.108   6.565  1.00  0.00    +0.032 A 
BRANCH   4   9
ATOM      9  O   UNL     1     -27.657  13.235   4.961  1.00  0.00    -0.508 OA
ATOM     10  H   UNL     1     -27.876  13.243   4.015  1.00  0.00    +0.293 HD
ENDBRANCH   4   9
ENDBRANCH   1   3
BRANCH   2  11
ATOM     11  C   UNL     1     -31.899   7.254   7.333  1.00  0.00    -0.007 A 
ATOM     12  C   UNL     1     -31.368   6.562   8.426  1.00  0.00    +0.017 A 
ATOM     13  C   UNL     1     -33.108   6.847   6.755  1.00  0.00    +0.017 A 
ATOM     14  C   UNL     1     -32.048   5.456   8.947  1.00  0.00    +0.086 A 
ATOM     15  C   UNL     1     -33.794   5.743   7.271  1.00  0.00    +0.086 A 
ATOM     16  C   UNL     1     -33.259   5.050   8.367  1.00  0.00    +0.269 A 
BRANCH  16  17
ATOM     17  N   UNL     1     -33.974   3.889   8.912  1.00  0.00    +0.062 N 
ATOM     18  O   UNL     1     -34.601   4.045   9.970  1.00  0.00    -0.258 OA
ATOM     19  O   UNL     1     -33.907   2.823   8.284  1.00  0.00    -0.258 OA
ENDBRANCH  16  17
ENDBRANCH   2  11
TORSDOF 4
ENDMDL
MODEL 4
REMARK VINA RESULT:    -8.022      4.690      8.166
REMARK INTER + INTRA:          -9.991
REMARK INTER:                  -9.671
REMARK INTRA:                  -0.320
REMARK UNBOUND:                -0.328
REMARK SMILES O=[N+]([O-])c1ccc(C=Nc2ccc(O)cc2)cc1
REMARK SMILES IDX 9 1 8 2 10 3 13 4 12 5 15 6 11 7 16 8 14 9 7 11 6 12 17 13
REMARK SMILES IDX 5 14 18 15 4 16 2 17 1 18 3 19
REMARK H PARENT 14 10
ROOT
ATOM      1  N   UNL     1     -31.684   7.721   6.689  1.00  0.00    -0.256 NA
ATOM      2  C   UNL     1     -31.000   8.510   7.456  1.00  0.00    +0.119 C 
ENDROOT
BRANCH   1   3
ATOM      3  C   UNL     1     -32.479   6.772   7.344  1.00  0.00    +0.063 A 
ATOM      4  C   UNL     1     -34.061   4.903   8.679  1.00  0.00    +0.115 A 
ATOM      5  C   UNL     1     -34.581   5.591   7.589  1.00  0.00    +0.048 A 
ATOM      6  C   UNL     1     -32.764   5.141   9.120  1.00  0.00    +0.048 A 
ATOM      7  C   UNL     1     -33.791   6.530   6.926  1.00  0.00    +0.032 A 
ATOM      8  C   UNL     1     -31.976   6.081   8.452  1.00  0.00    +0.032 A 
BRANCH   4   9
ATOM      9  O   UNL     1     -34.867   3.994   9.299  1.00  0.00    -0.508 OA
ATOM     10  H   UNL     1     -34.941   3.208   8.734  1.00  0.00    +0.293 HD
ENDBRANCH   4   9
ENDBRANCH   1   3
BRANCH   2  11
ATOM     11  C   UNL     1     -30.117   9.556   6.903  1.00  0.00    -0.007 A 
ATOM     12  C   UNL     1     -28.785   9.236   6.621  1.00  0.00    +0.017 A 
ATOM     13  C   UNL     1     -30.603  10.847   6.664  1.00  0.00    +0.017 A 
ATOM     14  C   UNL     1     -27.931  10.212   6.097  1.00  0.00    +0.086 A 
ATOM     15  C   UNL     1     -29.755  11.828   6.140  1.00  0.00    +0.086 A 
ATOM     16  C   UNL     1     -28.419  11.505   5.859  1.00  0.00    +0.269 A 
BRANCH  16  17
ATOM     17  N   UNL     1     -27.523  12.531   5.308  1.00  0.00    +0.062 N 
ATOM     18  O   UNL     1     -26.322  12.247   5.201  1.00  0.00    -0.258 OA
ATOM     19  O   UNL     1     -28.021  13.619   4.986  1.00  0.00    -0.258 OA
ENDBRANCH  16  17
ENDBRANCH   2  11
TORSDOF 4
ENDMDL
MODEL 5
REMARK VINA RESULT:    -7.142      8.719      9.653
REMARK INTER + INTRA:          -8.931
REMARK INTER:                  -8.604
REMARK INTRA:                  -0.327
REMARK UNBOUND:                -0.328
REMARK SMILES O=[N+]([O-])c1ccc(C=Nc2ccc(O)cc2)cc1
REMARK SMILES IDX 9 1 8 2 10 3 13 4 12 5 15 6 11 7 16 8 14 9 7 11 6 12 17 13
REMARK SMILES IDX 5 14 18 15 4 16 2 17 1 18 3 19
REMARK H PARENT 14 10
ROOT
ATOM      1  N   UNL     1     -34.831   3.604   9.882  1.00  0.00    -0.256 NA
ATOM      2  C   UNL     1     -34.399   3.050  10.970  1.00  0.00    +0.119 C 
ENDROOT
BRANCH   1   3
ATOM      3  C   UNL     1     -36.050   4.287   9.988  1.00  0.00    +0.063 A 
ATOM      4  C   UNL     1     -38.494   5.613  10.203  1.00  0.00    +0.115 A 
ATOM      5  C   UNL     1     -37.495   5.854  11.140  1.00  0.00    +0.048 A 
ATOM      6  C   UNL     1     -38.294   4.710   9.164  1.00  0.00    +0.048 A 
ATOM      7  C   UNL     1     -36.275   5.185  11.035  1.00  0.00    +0.032 A 
ATOM      8  C   UNL     1     -37.070   4.044   9.062  1.00  0.00    +0.032 A 
BRANCH   4   9
ATOM      9  O   UNL     1     -39.671   6.286  10.343  1.00  0.00    -0.508 OA
ATOM     10  H   UNL     1     -39.640   7.084   9.790  1.00  0.00    +0.293 HD
ENDBRANCH   4   9
ENDBRANCH   1   3
BRANCH   2  11
ATOM     11  C   UNL     1     -33.130   2.296  11.006  1.00  0.00    -0.007 A 
ATOM     12  C   UNL     1     -32.875   1.454  12.093  1.00  0.00    +0.017 A 
ATOM     13  C   UNL     1     -32.196   2.420   9.970  1.00  0.00    +0.017 A 
ATOM     14  C   UNL     1     -31.680   0.730  12.147  1.00  0.00    +0.086 A 
ATOM     15  C   UNL     1     -30.999   1.699  10.018  1.00  0.00    +0.086 A 
ATOM     16  C   UNL     1     -30.745   0.855  11.109  1.00  0.00    +0.269 A 
BRANCH  16  17
ATOM     17  N   UNL     1     -29.488   0.096  11.165  1.00  0.00    +0.062 N 
ATOM     18  O   UNL     1     -29.057  -0.380  10.106  1.00  0.00    -0.258 OA
ATOM     19  O   UNL     1     -28.936  -0.024  12.268  1.00  0.00    -0.258 OA
ENDBRANCH  16  17
ENDBRANCH   2  11
TORSDOF 4
ENDMDL
MODEL 6
REMARK VINA RESULT:    -7.088      5.402      8.966
REMARK INTER + INTRA:          -8.867
REMARK INTER:                  -8.536
REMARK INTRA:                  -0.331
REMARK UNBOUND:                -0.328
REMARK SMILES O=[N+]([O-])c1ccc(C=Nc2ccc(O)cc2)cc1
REMARK SMILES IDX 9 1 8 2 10 3 13 4 12 5 15 6 11 7 16 8 14 9 7 11 6 12 17 13
REMARK SMILES IDX 5 14 18 15 4 16 2 17 1 18 3 19
REMARK H PARENT 14 10
ROOT
ATOM      1  N   UNL     1     -33.352   6.195   7.735  1.00  0.00    -0.256 NA
ATOM      2  C   UNL     1     -32.095   6.377   7.990  1.00  0.00    +0.119 C 
ENDROOT
BRANCH   1   3
ATOM      3  C   UNL     1     -33.889   4.970   8.153  1.00  0.00    +0.063 A 
ATOM      4  C   UNL     1     -34.977   2.550   9.011  1.00  0.00    +0.115 A 
ATOM      5  C   UNL     1     -35.253   3.012   7.729  1.00  0.00    +0.048 A 
ATOM      6  C   UNL     1     -34.173   3.284   9.876  1.00  0.00    +0.048 A 
ATOM      7  C   UNL     1     -34.713   4.227   7.303  1.00  0.00    +0.032 A 
ATOM      8  C   UNL     1     -33.633   4.498   9.444  1.00  0.00    +0.032 A 
BRANCH   4   9
ATOM      9  O   UNL     1     -35.525   1.360   9.388  1.00  0.00    -0.508 OA
ATOM     10  H   UNL     1     -34.905   0.908   9.983  1.00  0.00    +0.293 HD
ENDBRANCH   4   9
ENDBRANCH   1   3
BRANCH   2  11
ATOM     11  C   UNL     1     -31.397   7.620   7.605  1.00  0.00    -0.007 A 
ATOM     12  C   UNL     1     -29.998   7.634   7.600  1.00  0.00    +0.017 A 
ATOM     13  C   UNL     1     -32.120   8.765   7.251  1.00  0.00    +0.017 A 
ATOM     14  C   UNL     1     -29.316   8.800   7.238  1.00  0.00    +0.086 A 
ATOM     15  C   UNL     1     -31.445   9.934   6.888  1.00  0.00    +0.086 A 
ATOM     16  C   UNL     1     -30.042   9.947   6.884  1.00  0.00    +0.269 A 
BRANCH  16  17
ATOM     17  N   UNL     1     -29.326  11.173   6.504  1.00  0.00    +0.062 N 
ATOM     18  O   UNL     1     -28.161  11.056   6.098  1.00  0.00    -0.258 OA
ATOM     19  O   UNL     1     -29.930  12.249   6.613  1.00  0.00    -0.258 OA
ENDBRANCH  16  17
ENDBRANCH   2  11
TORSDOF 4
ENDMDL
MODEL 7
REMARK VINA RESULT:    -6.901      9.130     11.989
REMARK INTER + INTRA:          -8.641
REMARK INTER:                  -8.317
REMARK INTRA:                  -0.325
REMARK UNBOUND:                -0.328
REMARK SMILES O=[N+]([O-])c1ccc(C=Nc2ccc(O)cc2)cc1
REMARK SMILES IDX 9 1 8 2 10 3 13 4 12 5 15 6 11 7 16 8 14 9 7 11 6 12 17 13
REMARK SMILES IDX 5 14 18 15 4 16 2 17 1 18 3 19
REMARK H PARENT 14 10
ROOT
ATOM      1  N   UNL     1     -33.237   1.241  10.963  1.00  0.00    -0.256 NA
ATOM      2  C   UNL     1     -33.136   2.518  11.153  1.00  0.00    +0.119 C 
ENDROOT
BRANCH   1   3
ATOM      3  C   UNL     1     -32.042   0.514  11.045  1.00  0.00    +0.063 A 
ATOM      4  C   UNL     1     -29.647  -0.906  11.188  1.00  0.00    +0.115 A 
ATOM      5  C   UNL     1     -30.200  -0.373  12.346  1.00  0.00    +0.048 A 
ATOM      6  C   UNL     1     -30.267  -0.732   9.955  1.00  0.00    +0.048 A 
ATOM      7  C   UNL     1     -31.395   0.344  12.272  1.00  0.00    +0.032 A 
ATOM      8  C   UNL     1     -31.464  -0.016   9.887  1.00  0.00    +0.032 A 
BRANCH   4   9
ATOM      9  O   UNL     1     -28.477  -1.598  11.303  1.00  0.00    -0.508 OA
ATOM     10  H   UNL     1     -27.910  -1.143  11.947  1.00  0.00    +0.293 HD
ENDBRANCH   4   9
ENDBRANCH   1   3
BRANCH   2  11
ATOM     11  C   UNL     1     -34.313   3.408  11.093  1.00  0.00    -0.007 A 
ATOM     12  C   UNL     1     -35.519   2.899  10.601  1.00  0.00    +0.017 A 
ATOM     13  C   UNL     1     -34.225   4.738  11.522  1.00  0.00    +0.017 A 
ATOM     14  C   UNL     1     -36.646   3.725  10.536  1.00  0.00    +0.086 A 
ATOM     15  C   UNL     1     -35.348   5.568  11.460  1.00  0.00    +0.086 A 
ATOM     16  C   UNL     1     -36.557   5.057  10.965  1.00  0.00    +0.269 A 
BRANCH  16  17
ATOM     17  N   UNL     1     -37.740   5.925  10.897  1.00  0.00    +0.062 N 
ATOM     18  O   UNL     1     -37.553   7.145  10.788  1.00  0.00    -0.258 OA
ATOM     19  O   UNL     1     -38.854   5.386  10.954  1.00  0.00    -0.258 OA
ENDBRANCH  16  17
ENDBRANCH   2  11
TORSDOF 4
ENDMDL
MODEL 8
REMARK VINA RESULT:    -6.744      5.674      8.011
REMARK INTER + INTRA:          -8.452
REMARK INTER:                  -8.134
REMARK INTRA:                  -0.318
REMARK UNBOUND:                -0.328
REMARK SMILES O=[N+]([O-])c1ccc(C=Nc2ccc(O)cc2)cc1
REMARK SMILES IDX 9 1 8 2 10 3 13 4 12 5 15 6 11 7 16 8 14 9 7 11 6 12 17 13
REMARK SMILES IDX 5 14 18 15 4 16 2 17 1 18 3 19
REMARK H PARENT 14 10
ROOT
ATOM      1  N   UNL     1     -32.554   6.206   7.136  1.00  0.00    -0.256 NA
ATOM      2  C   UNL     1     -32.045   7.043   7.984  1.00  0.00    +0.119 C 
ENDROOT
BRANCH   1   3
ATOM      3  C   UNL     1     -33.743   5.581   7.535  1.00  0.00    +0.063 A 
ATOM      4  C   UNL     1     -36.090   4.320   8.357  1.00  0.00    +0.115 A 
ATOM      5  C   UNL     1     -36.013   5.708   8.373  1.00  0.00    +0.048 A 
ATOM      6  C   UNL     1     -35.008   3.550   7.945  1.00  0.00    +0.048 A 
ATOM      7  C   UNL     1     -34.835   6.337   7.968  1.00  0.00    +0.032 A 
ATOM      8  C   UNL     1     -33.832   4.185   7.538  1.00  0.00    +0.032 A 
BRANCH   4   9
ATOM      9  O   UNL     1     -37.258   3.744   8.762  1.00  0.00    -0.508 OA
ATOM     10  H   UNL     1     -37.998   4.215   8.343  1.00  0.00    +0.293 HD
ENDBRANCH   4   9
ENDBRANCH   1   3
BRANCH   2  11
ATOM     11  C   UNL     1     -30.794   7.773   7.698  1.00  0.00    -0.007 A 
ATOM     12  C   UNL     1     -29.575   7.193   8.067  1.00  0.00    +0.017 A 
ATOM     13  C   UNL     1     -30.824   9.023   7.068  1.00  0.00    +0.017 A 
ATOM     14  C   UNL     1     -28.378   7.868   7.806  1.00  0.00    +0.086 A 
ATOM     15  C   UNL     1     -29.630   9.702   6.803  1.00  0.00    +0.086 A 
ATOM     16  C   UNL     1     -28.409   9.120   7.175  1.00  0.00    +0.269 A 
BRANCH  16  17
ATOM     17  N   UNL     1     -27.152   9.829   6.900  1.00  0.00    +0.062 N 
ATOM     18  O   UNL     1     -26.116   9.380   7.410  1.00  0.00    -0.258 OA
ATOM     19  O   UNL     1     -27.203  10.833   6.177  1.00  0.00    -0.258 OA
ENDBRANCH  16  17
ENDBRANCH   2  11
TORSDOF 4
ENDMDL
