REMARK SMILES O=C(Cl)c1cccc2c([N+](=O)[O-])cccc12
REMARK SMILES IDX 9 1 8 2 7 3 6 4 5 5 4 6 16 7 15 8 14 9 13 10 10 11 11 12
REMARK SMILES IDX 12 13 2 14 1 15 3 16
REMARK H PARENT
ROOT
ATOM      1  C   UNL     1      -1.866   0.109   0.066  1.00  0.00    +0.277 A 
ATOM      2  C   UNL     1      -0.569  -0.447  -0.106  1.00  0.00    +0.060 A 
ATOM      3  C   UNL     1      -0.318  -1.798  -0.471  1.00  0.00    +0.016 A 
ATOM      4  C   UNL     1       0.975  -2.301  -0.610  1.00  0.00    +0.002 A 
ATOM      5  C   UNL     1       2.061  -1.467  -0.402  1.00  0.00    +0.014 A 
ATOM      6  C   UNL     1       1.848  -0.127  -0.055  1.00  0.00    +0.042 A 
ATOM      7  C   UNL     1       0.544   0.406   0.124  1.00  0.00    +0.001 A 
ATOM      8  C   UNL     1       0.299   1.740   0.546  1.00  0.00    +0.010 A 
ATOM      9  C   UNL     1      -0.992   2.245   0.717  1.00  0.00    +0.008 A 
ATOM     10  C   UNL     1      -2.085   1.431   0.473  1.00  0.00    +0.086 A 
ENDROOT
BRANCH   1  11
ATOM     11  N   UNL     1      -3.053  -0.693  -0.177  1.00  0.00    +0.063 N 
ATOM     12  O   UNL     1      -3.820  -0.867   0.780  1.00  0.00    -0.258 OA
ATOM     13  O   UNL     1      -3.223  -1.125  -1.325  1.00  0.00    -0.258 OA
ENDBRANCH   1  11
BRANCH   6  14
ATOM     14  C   UNL     1       3.068   0.701   0.101  1.00  0.00    +0.253 C 
ATOM     15  O   UNL     1       3.823   0.407   1.026  1.00  0.00    -0.276 OA
ATOM     16 Cl   UNL     1       3.352   1.969  -1.064  1.00  0.00    -0.038 Cl
ENDBRANCH   6  14
TORSDOF 2
