REMARK SMILES O=[N+]([O-])c1ccccc1C=Nc1ccccc1O
REMARK SMILES IDX 11 1 10 2 12 3 17 4 16 5 13 6 15 7 14 8 18 9 9 11 4 12 8 13
REMARK SMILES IDX 5 14 7 15 6 16 2 17 1 18 3 19
REMARK H PARENT 18 10
ROOT
ATOM      1  N   UNL     1      -0.488   0.262  -0.359  1.00  0.00    -0.252 NA
ATOM      2  C   UNL     1       0.265   0.184   0.690  1.00  0.00    +0.127 C 
ENDROOT
BRANCH   1   3
ATOM      3  C   UNL     1      -1.871   0.315  -0.116  1.00  0.00    +0.105 A 
ATOM      4  C   UNL     1      -2.640  -0.852  -0.223  1.00  0.00    +0.141 A 
ATOM      5  C   UNL     1      -4.008  -0.840   0.021  1.00  0.00    +0.048 A 
ATOM      6  C   UNL     1      -2.507   1.516   0.205  1.00  0.00    +0.032 A 
ATOM      7  C   UNL     1      -4.631   0.362   0.359  1.00  0.00    +0.004 A 
ATOM      8  C   UNL     1      -3.883   1.539   0.446  1.00  0.00    +0.003 A 
BRANCH   4   9
ATOM      9  O   UNL     1      -2.053  -2.038  -0.575  1.00  0.00    -0.506 OA
ATOM     10  H   UNL     1      -1.136  -1.815  -0.848  1.00  0.00    +0.293 HD
ENDBRANCH   4   9
ENDBRANCH   1   3
BRANCH   2  11
ATOM     11  C   UNL     1       1.730   0.077   0.574  1.00  0.00    +0.071 A 
ATOM     12  C   UNL     1       2.390  -0.443  -0.544  1.00  0.00    +0.278 A 
ATOM     13  C   UNL     1       2.490   0.556   1.649  1.00  0.00    +0.017 A 
ATOM     14  C   UNL     1       3.791  -0.461  -0.615  1.00  0.00    +0.086 A 
ATOM     15  C   UNL     1       3.887   0.535   1.586  1.00  0.00    +0.001 A 
ATOM     16  C   UNL     1       4.536   0.035   0.456  1.00  0.00    +0.007 A 
BRANCH  12  17
ATOM     17  N   UNL     1       1.659  -1.061  -1.634  1.00  0.00    +0.063 N 
ATOM     18  O   UNL     1       0.909  -2.009  -1.350  1.00  0.00    -0.258 OA
ATOM     19  O   UNL     1       1.899  -0.650  -2.777  1.00  0.00    -0.258 OA
ENDBRANCH  12  17
ENDBRANCH   2  11
TORSDOF 4
