REMARK SMILES O=C1C(O)=C(CCCc2ccc(Oc3ccccc3)cc2)C(=O)c2ccccc21
REMARK SMILES IDX 7 1 6 2 5 3 3 4 2 5 22 6 29 7 1 8 23 9 24 10 28 11 25 12
REMARK SMILES IDX 27 13 26 14 4 15 8 17 9 18 10 19 21 20 11 21 20 22 12 23
REMARK SMILES IDX 13 24 14 25 15 26 19 27 16 28 18 29 17 30
REMARK H PARENT 4 16
ROOT
ATOM      1  C   UNL     1       0.935   1.390   1.758  1.00  0.00    +0.010 C 
ENDROOT
BRANCH   1   2
ATOM      2  C   UNL     1       2.396   1.329   2.223  1.00  0.00    +0.044 C 
BRANCH   2   3
ATOM      3  C   UNL     1       3.380   0.989   1.127  1.00  0.00    +0.046 C 
ATOM      4  C   UNL     1       3.694   1.836   0.137  1.00  0.00    +0.171 C 
ATOM      5  C   UNL     1       4.635   1.478  -0.954  1.00  0.00    +0.228 C 
ATOM      6  C   UNL     1       4.014  -0.359   1.178  1.00  0.00    +0.193 C 
ATOM      7  C   UNL     1       5.277   0.160  -0.910  1.00  0.00    +0.037 A 
ATOM      8  O   UNL     1       4.833   2.282  -1.860  1.00  0.00    -0.285 OA
ATOM      9  O   UNL     1       3.755  -1.156   2.075  1.00  0.00    -0.289 OA
ATOM     10  C   UNL     1       4.975  -0.728   0.119  1.00  0.00    +0.034 A 
ATOM     11  C   UNL     1       6.185  -0.203  -1.914  1.00  0.00    +0.013 A 
ATOM     12  C   UNL     1       5.585  -1.989   0.146  1.00  0.00    +0.013 A 
ATOM     13  C   UNL     1       6.794  -1.457  -1.880  1.00  0.00    +0.001 A 
ATOM     14  C   UNL     1       6.494  -2.349  -0.852  1.00  0.00    +0.001 A 
BRANCH   4  15
ATOM     15  O   UNL     1       3.127   3.095   0.058  1.00  0.00    -0.504 OA
ATOM     16  H   UNL     1       3.488   3.494  -0.765  1.00  0.00    +0.293 HD
ENDBRANCH   4  15
ENDBRANCH   2   3
ENDBRANCH   1   2
BRANCH   1  17
ATOM     17  C   UNL     1       0.427   0.083   1.135  1.00  0.00    +0.036 C 
BRANCH  17  18
ATOM     18  C   UNL     1      -0.963   0.254   0.569  1.00  0.00    -0.048 A 
ATOM     19  C   UNL     1      -2.087  -0.164   1.291  1.00  0.00    +0.007 A 
ATOM     20  C   UNL     1      -1.143   0.870  -0.679  1.00  0.00    +0.007 A 
ATOM     21  C   UNL     1      -3.370   0.021   0.771  1.00  0.00    +0.047 A 
ATOM     22  C   UNL     1      -2.425   1.058  -1.198  1.00  0.00    +0.047 A 
ATOM     23  C   UNL     1      -3.539   0.621  -0.481  1.00  0.00    +0.127 A 
BRANCH  23  24
ATOM     24  O   UNL     1      -4.766   0.879  -1.053  1.00  0.00    -0.457 OA
BRANCH  24  25
ATOM     25  C   UNL     1      -5.766  -0.036  -0.822  1.00  0.00    +0.127 A 
ATOM     26  C   UNL     1      -6.890   0.383  -0.110  1.00  0.00    +0.047 A 
ATOM     27  C   UNL     1      -5.689  -1.334  -1.335  1.00  0.00    +0.047 A 
ATOM     28  C   UNL     1      -7.921  -0.522   0.140  1.00  0.00    +0.004 A 
ATOM     29  C   UNL     1      -6.727  -2.234  -1.089  1.00  0.00    +0.004 A 
ATOM     30  C   UNL     1      -7.834  -1.831  -0.344  1.00  0.00    +0.000 A 
ENDBRANCH  24  25
ENDBRANCH  23  24
ENDBRANCH  17  18
ENDBRANCH   1  17
TORSDOF 7
