REMARK SMILES c1ccc2c(c1)Nc1ccc3ccccc3c1S2
REMARK SMILES IDX 7 1 5 2 6 3 1 4 2 5 3 6 4 7 18 8 17 9 8 10 9 11 10 12 11 13
REMARK SMILES IDX 16 14 15 15 14 16 13 17 12 18
REMARK H PARENT 7 19
ROOT
ATOM      1  N   UNL     1       1.485   1.242  -0.506  1.00  0.00    -0.354 N 
ATOM      2  C   UNL     1       2.496   0.358  -0.098  1.00  0.00    +0.053 A 
ATOM      3  C   UNL     1       3.837   0.763  -0.200  1.00  0.00    +0.027 A 
ATOM      4  C   UNL     1       4.878  -0.096   0.156  1.00  0.00    +0.002 A 
ATOM      5  C   UNL     1       4.591  -1.380   0.606  1.00  0.00    +0.001 A 
ATOM      6  C   UNL     1       3.264  -1.802   0.692  1.00  0.00    +0.017 A 
ATOM      7  C   UNL     1       2.213  -0.944   0.336  1.00  0.00    +0.036 A 
ATOM      8  S   UNL     1       0.554  -1.573   0.463  1.00  0.00    -0.085 SA
ATOM      9  C   UNL     1      -0.488  -0.185  -0.034  1.00  0.00    +0.044 A 
ATOM     10  C   UNL     1       0.095   1.039  -0.430  1.00  0.00    +0.053 A 
ATOM     11  C   UNL     1      -0.738   2.086  -0.841  1.00  0.00    +0.028 A 
ATOM     12  C   UNL     1      -2.124   1.950  -0.832  1.00  0.00    +0.011 A 
ATOM     13  C   UNL     1      -2.723   0.756  -0.424  1.00  0.00    -0.017 A 
ATOM     14  C   UNL     1      -1.917  -0.338  -0.019  1.00  0.00    -0.002 A 
ATOM     15  C   UNL     1      -2.602  -1.519   0.375  1.00  0.00    +0.010 A 
ATOM     16  C   UNL     1      -3.997  -1.610   0.371  1.00  0.00    +0.001 A 
ATOM     17  C   UNL     1      -4.759  -0.524  -0.030  1.00  0.00    +0.001 A 
ATOM     18  C   UNL     1      -4.125   0.651  -0.424  1.00  0.00    +0.009 A 
ATOM     19  H   UNL     1       1.776   2.206  -0.609  1.00  0.00    +0.167 HD
ENDROOT
TORSDOF 0
