MODEL 1
REMARK VINA RESULT:    -8.125      0.000      0.000
REMARK INTER + INTRA:          -9.103
REMARK INTER:                  -9.075
REMARK INTRA:                  -0.028
REMARK UNBOUND:                -0.028
REMARK SMILES Nc1ccc(S(=O)(=O)O)c2ccccc12
REMARK SMILES IDX 2 1 15 2 14 3 13 4 12 5 11 6 10 7 5 8 4 9 3 10 1 11 6 14
REMARK SMILES IDX 7 15 8 16 9 17
REMARK H PARENT 1 12 1 13 9 18
ROOT
ATOM      1  C   UNL     1     -30.454  11.280   6.303  1.00  0.00    +0.039 A 
ATOM      2  C   UNL     1     -30.110   9.987   6.790  1.00  0.00    +0.006 A 
ATOM      3  C   UNL     1     -31.074   9.117   7.356  1.00  0.00    +0.011 A 
ATOM      4  C   UNL     1     -30.744   7.844   7.823  1.00  0.00    +0.001 A 
ATOM      5  C   UNL     1     -29.436   7.406   7.742  1.00  0.00    +0.001 A 
ATOM      6  C   UNL     1     -28.460   8.242   7.199  1.00  0.00    +0.010 A 
ATOM      7  C   UNL     1     -28.758   9.542   6.714  1.00  0.00    +0.005 A 
ATOM      8  C   UNL     1     -27.793  10.436   6.173  1.00  0.00    +0.102 A 
ATOM      9  C   UNL     1     -28.139  11.728   5.762  1.00  0.00    +0.025 A 
ATOM     10  C   UNL     1     -29.457  12.148   5.850  1.00  0.00    +0.027 A 
ENDROOT
BRANCH   1  11
ATOM     11  N   UNL     1     -31.747  11.838   6.448  1.00  0.00    -0.398 N 
ATOM     12  H   UNL     1     -32.353  11.640   5.659  1.00  0.00    +0.156 HD
ATOM     13  H   UNL     1     -32.181  11.498   7.305  1.00  0.00    +0.156 HD
ENDBRANCH   1  11
BRANCH   8  14
ATOM     14  S   UNL     1     -26.086   9.967   5.983  1.00  0.00    +0.295 S 
ATOM     15  O   UNL     1     -25.532   9.703   7.295  1.00  0.00    -0.194 OA
ATOM     16  O   UNL     1     -26.001   8.992   4.919  1.00  0.00    -0.194 OA
BRANCH  14  17
ATOM     17  O   UNL     1     -25.336  11.312   5.500  1.00  0.00    -0.282 OA
ATOM     18  H   UNL     1     -25.406  11.349   4.523  1.00  0.00    +0.234 HD
ENDBRANCH  14  17
ENDBRANCH   8  14
TORSDOF 3
ENDMDL
MODEL 2
REMARK VINA RESULT:    -7.910      1.222      3.248
REMARK INTER + INTRA:          -8.863
REMARK INTER:                  -9.070
REMARK INTRA:                   0.207
REMARK UNBOUND:                -0.028
REMARK SMILES Nc1ccc(S(=O)(=O)O)c2ccccc12
REMARK SMILES IDX 2 1 15 2 14 3 13 4 12 5 11 6 10 7 5 8 4 9 3 10 1 11 6 14
REMARK SMILES IDX 7 15 8 16 9 17
REMARK H PARENT 1 12 1 13 9 18
ROOT
ATOM      1  C   UNL     1     -30.413  10.093   7.005  1.00  0.00    +0.039 A 
ATOM      2  C   UNL     1     -29.403  10.911   6.426  1.00  0.00    +0.006 A 
ATOM      3  C   UNL     1     -29.669  12.226   5.971  1.00  0.00    +0.011 A 
ATOM      4  C   UNL     1     -28.680  13.036   5.414  1.00  0.00    +0.001 A 
ATOM      5  C   UNL     1     -27.391  12.552   5.292  1.00  0.00    +0.001 A 
ATOM      6  C   UNL     1     -27.096  11.258   5.721  1.00  0.00    +0.010 A 
ATOM      7  C   UNL     1     -28.076  10.405   6.292  1.00  0.00    +0.005 A 
ATOM      8  C   UNL     1     -27.826   9.073   6.723  1.00  0.00    +0.102 A 
ATOM      9  C   UNL     1     -28.848   8.261   7.227  1.00  0.00    +0.025 A 
ATOM     10  C   UNL     1     -30.134   8.766   7.343  1.00  0.00    +0.027 A 
ENDROOT
BRANCH   1  11
ATOM     11  N   UNL     1     -31.774  10.478   7.066  1.00  0.00    -0.398 N 
ATOM     12  H   UNL     1     -31.910  11.471   6.910  1.00  0.00    +0.156 HD
ATOM     13  H   UNL     1     -32.318   9.949   6.388  1.00  0.00    +0.156 HD
ENDBRANCH   1  11
BRANCH   8  14
ATOM     14  S   UNL     1     -26.198   8.357   6.651  1.00  0.00    +0.295 S 
ATOM     15  O   UNL     1     -25.285   9.216   7.378  1.00  0.00    -0.194 OA
ATOM     16  O   UNL     1     -26.309   6.948   6.954  1.00  0.00    -0.194 OA
BRANCH  14  17
ATOM     17  O   UNL     1     -25.743   8.511   5.110  1.00  0.00    -0.282 OA
ATOM     18  H   UNL     1     -26.040   9.395   4.807  1.00  0.00    +0.234 HD
ENDBRANCH  14  17
ENDBRANCH   8  14
TORSDOF 3
ENDMDL
MODEL 3
REMARK VINA RESULT:    -7.847      3.723      5.158
REMARK INTER + INTRA:          -8.792
REMARK INTER:                  -8.950
REMARK INTRA:                   0.158
REMARK UNBOUND:                -0.028
REMARK SMILES Nc1ccc(S(=O)(=O)O)c2ccccc12
REMARK SMILES IDX 2 1 15 2 14 3 13 4 12 5 11 6 10 7 5 8 4 9 3 10 1 11 6 14
REMARK SMILES IDX 7 15 8 16 9 17
REMARK H PARENT 1 12 1 13 9 18
ROOT
ATOM      1  C   UNL     1     -26.775   9.230   6.427  1.00  0.00    +0.039 A 
ATOM      2  C   UNL     1     -27.317  10.490   6.045  1.00  0.00    +0.006 A 
ATOM      3  C   UNL     1     -26.527  11.492   5.430  1.00  0.00    +0.011 A 
ATOM      4  C   UNL     1     -27.056  12.723   5.042  1.00  0.00    +0.001 A 
ATOM      5  C   UNL     1     -28.394  12.990   5.263  1.00  0.00    +0.001 A 
ATOM      6  C   UNL     1     -29.199  12.029   5.875  1.00  0.00    +0.010 A 
ATOM      7  C   UNL     1     -28.696  10.765   6.283  1.00  0.00    +0.005 A 
ATOM      8  C   UNL     1     -29.472   9.764   6.929  1.00  0.00    +0.102 A 
ATOM      9  C   UNL     1     -28.906   8.559   7.358  1.00  0.00    +0.025 A 
ATOM     10  C   UNL     1     -27.562   8.310   7.126  1.00  0.00    +0.027 A 
ENDROOT
BRANCH   1  11
ATOM     11  N   UNL     1     -25.396   8.925   6.331  1.00  0.00    -0.398 N 
ATOM     12  H   UNL     1     -24.844   9.361   7.061  1.00  0.00    +0.156 HD
ATOM     13  H   UNL     1     -25.258   7.916   6.357  1.00  0.00    +0.156 HD
ENDBRANCH   1  11
BRANCH   8  14
ATOM     14  S   UNL     1     -31.214   9.980   7.229  1.00  0.00    +0.295 S 
ATOM     15  O   UNL     1     -31.787   8.693   7.563  1.00  0.00    -0.194 OA
ATOM     16  O   UNL     1     -31.386  11.128   8.090  1.00  0.00    -0.194 OA
BRANCH  14  17
ATOM     17  O   UNL     1     -31.844  10.330   5.784  1.00  0.00    -0.282 OA
ATOM     18  H   UNL     1     -32.452   9.598   5.547  1.00  0.00    +0.234 HD
ENDBRANCH  14  17
ENDBRANCH   8  14
TORSDOF 3
ENDMDL
MODEL 4
REMARK VINA RESULT:    -7.374      2.607      3.667
REMARK INTER + INTRA:          -8.264
REMARK INTER:                  -8.337
REMARK INTRA:                   0.074
REMARK UNBOUND:                -0.028
REMARK SMILES Nc1ccc(S(=O)(=O)O)c2ccccc12
REMARK SMILES IDX 2 1 15 2 14 3 13 4 12 5 11 6 10 7 5 8 4 9 3 10 1 11 6 14
REMARK SMILES IDX 7 15 8 16 9 17
REMARK H PARENT 1 12 1 13 9 18
ROOT
ATOM      1  C   UNL     1     -29.027   7.351   7.912  1.00  0.00    +0.039 A 
ATOM      2  C   UNL     1     -27.635   7.094   7.758  1.00  0.00    +0.006 A 
ATOM      3  C   UNL     1     -27.000   5.994   8.383  1.00  0.00    +0.011 A 
ATOM      4  C   UNL     1     -25.639   5.731   8.225  1.00  0.00    +0.001 A 
ATOM      5  C   UNL     1     -24.870   6.568   7.437  1.00  0.00    +0.001 A 
ATOM      6  C   UNL     1     -25.462   7.666   6.814  1.00  0.00    +0.010 A 
ATOM      7  C   UNL     1     -26.843   7.965   6.952  1.00  0.00    +0.005 A 
ATOM      8  C   UNL     1     -27.485   9.085   6.354  1.00  0.00    +0.102 A 
ATOM      9  C   UNL     1     -28.839   9.357   6.573  1.00  0.00    +0.025 A 
ATOM     10  C   UNL     1     -29.593   8.505   7.365  1.00  0.00    +0.027 A 
ENDROOT
BRANCH   1  11
ATOM     11  N   UNL     1     -29.854   6.604   8.785  1.00  0.00    -0.398 N 
ATOM     12  H   UNL     1     -29.462   6.509   9.715  1.00  0.00    +0.156 HD
ATOM     13  H   UNL     1     -30.776   7.031   8.845  1.00  0.00    +0.156 HD
ENDBRANCH   1  11
BRANCH   8  14
ATOM     14  S   UNL     1     -26.605  10.206   5.288  1.00  0.00    +0.295 S 
ATOM     15  O   UNL     1     -25.406  10.647   5.971  1.00  0.00    -0.194 OA
ATOM     16  O   UNL     1     -26.549   9.624   3.966  1.00  0.00    -0.194 OA
BRANCH  14  17
ATOM     17  O   UNL     1     -27.530  11.528   5.222  1.00  0.00    -0.282 OA
ATOM     18  H   UNL     1     -28.384  11.266   4.817  1.00  0.00    +0.234 HD
ENDBRANCH  14  17
ENDBRANCH   8  14
TORSDOF 3
ENDMDL
MODEL 5
REMARK VINA RESULT:    -7.306      1.368      2.107
REMARK INTER + INTRA:          -8.188
REMARK INTER:                  -8.337
REMARK INTRA:                   0.149
REMARK UNBOUND:                -0.028
REMARK SMILES Nc1ccc(S(=O)(=O)O)c2ccccc12
REMARK SMILES IDX 2 1 15 2 14 3 13 4 12 5 11 6 10 7 5 8 4 9 3 10 1 11 6 14
REMARK SMILES IDX 7 15 8 16 9 17
REMARK H PARENT 1 12 1 13 9 18
ROOT
ATOM      1  C   UNL     1     -30.638  10.467   6.939  1.00  0.00    +0.039 A 
ATOM      2  C   UNL     1     -29.509   9.607   7.047  1.00  0.00    +0.006 A 
ATOM      3  C   UNL     1     -29.582   8.347   7.691  1.00  0.00    +0.011 A 
ATOM      4  C   UNL     1     -28.482   7.496   7.788  1.00  0.00    +0.001 A 
ATOM      5  C   UNL     1     -27.270   7.883   7.247  1.00  0.00    +0.001 A 
ATOM      6  C   UNL     1     -27.160   9.121   6.614  1.00  0.00    +0.010 A 
ATOM      7  C   UNL     1     -28.258  10.013   6.496  1.00  0.00    +0.005 A 
ATOM      8  C   UNL     1     -28.188  11.293   5.880  1.00  0.00    +0.102 A 
ATOM      9  C   UNL     1     -29.292  12.152   5.843  1.00  0.00    +0.025 A 
ATOM     10  C   UNL     1     -30.498  11.744   6.391  1.00  0.00    +0.027 A 
ENDROOT
BRANCH   1  11
ATOM     11  N   UNL     1     -31.879  10.187   7.559  1.00  0.00    -0.398 N 
ATOM     12  H   UNL     1     -32.134  10.874   8.260  1.00  0.00    +0.156 HD
ATOM     13  H   UNL     1     -32.615  10.126   6.858  1.00  0.00    +0.156 HD
ENDBRANCH   1  11
BRANCH   8  14
ATOM     14  S   UNL     1     -26.692  11.881   5.113  1.00  0.00    +0.295 S 
ATOM     15  O   UNL     1     -26.995  13.093   4.380  1.00  0.00    -0.194 OA
ATOM     16  O   UNL     1     -25.633  11.840   6.096  1.00  0.00    -0.194 OA
BRANCH  14  17
ATOM     17  O   UNL     1     -26.360  10.797   3.964  1.00  0.00    -0.282 OA
ATOM     18  H   UNL     1     -27.141  10.752   3.372  1.00  0.00    +0.234 HD
ENDBRANCH  14  17
ENDBRANCH   8  14
TORSDOF 3
ENDMDL
MODEL 6
REMARK VINA RESULT:    -6.841      4.362      5.422
REMARK INTER + INTRA:          -7.669
REMARK INTER:                  -8.188
REMARK INTRA:                   0.519
REMARK UNBOUND:                -0.028
REMARK SMILES Nc1ccc(S(=O)(=O)O)c2ccccc12
REMARK SMILES IDX 2 1 15 2 14 3 13 4 12 5 11 6 10 7 5 8 4 9 3 10 1 11 6 14
REMARK SMILES IDX 7 15 8 16 9 17
REMARK H PARENT 1 12 1 13 9 18
ROOT
ATOM      1  C   UNL     1     -25.750   8.087   6.640  1.00  0.00    +0.039 A 
ATOM      2  C   UNL     1     -27.085   7.926   7.107  1.00  0.00    +0.006 A 
ATOM      3  C   UNL     1     -28.105   8.861   6.807  1.00  0.00    +0.011 A 
ATOM      4  C   UNL     1     -29.417   8.701   7.252  1.00  0.00    +0.001 A 
ATOM      5  C   UNL     1     -29.747   7.599   8.018  1.00  0.00    +0.001 A 
ATOM      6  C   UNL     1     -28.765   6.662   8.341  1.00  0.00    +0.010 A 
ATOM      7  C   UNL     1     -27.420   6.792   7.905  1.00  0.00    +0.005 A 
ATOM      8  C   UNL     1     -26.382   5.875   8.227  1.00  0.00    +0.102 A 
ATOM      9  C   UNL     1     -25.062   6.087   7.815  1.00  0.00    +0.025 A 
ATOM     10  C   UNL     1     -24.752   7.198   7.046  1.00  0.00    +0.027 A 
ENDROOT
BRANCH   1  11
ATOM     11  N   UNL     1     -25.314   9.239   5.943  1.00  0.00    -0.398 N 
ATOM     12  H   UNL     1     -24.536   9.053   5.319  1.00  0.00    +0.156 HD
ATOM     13  H   UNL     1     -26.085   9.643   5.416  1.00  0.00    +0.156 HD
ENDBRANCH   1  11
BRANCH   8  14
ATOM     14  S   UNL     1     -26.697   4.400   9.172  1.00  0.00    +0.295 S 
ATOM     15  O   UNL     1     -28.126   4.162   9.192  1.00  0.00    -0.194 OA
ATOM     16  O   UNL     1     -25.769   3.379   8.741  1.00  0.00    -0.194 OA
BRANCH  14  17
ATOM     17  O   UNL     1     -26.342   4.798  10.696  1.00  0.00    -0.282 OA
ATOM     18  H   UNL     1     -27.124   4.578  11.244  1.00  0.00    +0.234 HD
ENDBRANCH  14  17
ENDBRANCH   8  14
TORSDOF 3
ENDMDL
MODEL 7
REMARK VINA RESULT:    -6.812      9.571     11.002
REMARK INTER + INTRA:          -7.635
REMARK INTER:                  -7.619
REMARK INTRA:                  -0.017
REMARK UNBOUND:                -0.028
REMARK SMILES Nc1ccc(S(=O)(=O)O)c2ccccc12
REMARK SMILES IDX 2 1 15 2 14 3 13 4 12 5 11 6 10 7 5 8 4 9 3 10 1 11 6 14
REMARK SMILES IDX 7 15 8 16 9 17
REMARK H PARENT 1 12 1 13 9 18
ROOT
ATOM      1  C   UNL     1     -25.501  -1.079  10.126  1.00  0.00    +0.039 A 
ATOM      2  C   UNL     1     -24.451  -0.137  10.321  1.00  0.00    +0.006 A 
ATOM      3  C   UNL     1     -23.128  -0.539  10.624  1.00  0.00    +0.011 A 
ATOM      4  C   UNL     1     -22.093   0.379  10.804  1.00  0.00    +0.001 A 
ATOM      5  C   UNL     1     -22.355   1.732  10.690  1.00  0.00    +0.001 A 
ATOM      6  C   UNL     1     -23.650   2.163  10.403  1.00  0.00    +0.010 A 
ATOM      7  C   UNL     1     -24.727   1.258  10.213  1.00  0.00    +0.005 A 
ATOM      8  C   UNL     1     -26.066   1.652   9.940  1.00  0.00    +0.102 A 
ATOM      9  C   UNL     1     -27.097   0.713   9.819  1.00  0.00    +0.025 A 
ATOM     10  C   UNL     1     -26.813  -0.639   9.934  1.00  0.00    +0.027 A 
ENDROOT
BRANCH   1  11
ATOM     11  N   UNL     1     -25.334  -2.470  10.330  1.00  0.00    -0.398 N 
ATOM     12  H   UNL     1     -24.767  -2.909   9.613  1.00  0.00    +0.156 HD
ATOM     13  H   UNL     1     -24.921  -2.642  11.244  1.00  0.00    +0.156 HD
ENDBRANCH   1  11
BRANCH   8  14
ATOM     14  S   UNL     1     -26.514   3.362   9.733  1.00  0.00    +0.295 S 
ATOM     15  O   UNL     1     -26.528   3.996  11.036  1.00  0.00    -0.194 OA
ATOM     16  O   UNL     1     -25.737   3.904   8.641  1.00  0.00    -0.194 OA
BRANCH  14  17
ATOM     17  O   UNL     1     -28.065   3.336   9.289  1.00  0.00    -0.282 OA
ATOM     18  H   UNL     1     -28.088   3.184   8.321  1.00  0.00    +0.234 HD
ENDBRANCH  14  17
ENDBRANCH   8  14
TORSDOF 3
ENDMDL
MODEL 8
REMARK VINA RESULT:    -6.715     10.012     11.559
REMARK INTER + INTRA:          -7.527
REMARK INTER:                  -7.706
REMARK INTRA:                   0.179
REMARK UNBOUND:                -0.028
REMARK SMILES Nc1ccc(S(=O)(=O)O)c2ccccc12
REMARK SMILES IDX 2 1 15 2 14 3 13 4 12 5 11 6 10 7 5 8 4 9 3 10 1 11 6 14
REMARK SMILES IDX 7 15 8 16 9 17
REMARK H PARENT 1 12 1 13 9 18
ROOT
ATOM      1  C   UNL     1     -37.262   1.680  10.765  1.00  0.00    +0.039 A 
ATOM      2  C   UNL     1     -35.998   2.337  10.773  1.00  0.00    +0.006 A 
ATOM      3  C   UNL     1     -34.778   1.618  10.774  1.00  0.00    +0.011 A 
ATOM      4  C   UNL     1     -33.538   2.256  10.769  1.00  0.00    +0.001 A 
ATOM      5  C   UNL     1     -33.482   3.637  10.768  1.00  0.00    +0.001 A 
ATOM      6  C   UNL     1     -34.665   4.376  10.777  1.00  0.00    +0.010 A 
ATOM      7  C   UNL     1     -35.945   3.762  10.782  1.00  0.00    +0.005 A 
ATOM      8  C   UNL     1     -37.176   4.473  10.814  1.00  0.00    +0.102 A 
ATOM      9  C   UNL     1     -38.406   3.810  10.874  1.00  0.00    +0.025 A 
ATOM     10  C   UNL     1     -38.440   2.424  10.872  1.00  0.00    +0.027 A 
ENDROOT
BRANCH   1  11
ATOM     11  N   UNL     1     -37.399   0.276  10.873  1.00  0.00    -0.398 N 
ATOM     12  H   UNL     1     -36.726  -0.139  11.508  1.00  0.00    +0.156 HD
ATOM     13  H   UNL     1     -38.343   0.038  11.172  1.00  0.00    +0.156 HD
ENDBRANCH   1  11
BRANCH   8  14
ATOM     14  S   UNL     1     -37.228   6.253  10.775  1.00  0.00    +0.295 S 
ATOM     15  O   UNL     1     -38.558   6.666  10.378  1.00  0.00    -0.194 OA
ATOM     16  O   UNL     1     -36.615   6.750  11.986  1.00  0.00    -0.194 OA
BRANCH  14  17
ATOM     17  O   UNL     1     -36.296   6.669   9.525  1.00  0.00    -0.282 OA
ATOM     18  H   UNL     1     -35.681   5.923   9.359  1.00  0.00    +0.234 HD
ENDBRANCH  14  17
ENDBRANCH   8  14
TORSDOF 3
ENDMDL
MODEL 9
REMARK VINA RESULT:    -6.612      8.790     10.249
REMARK INTER + INTRA:          -7.413
REMARK INTER:                  -7.622
REMARK INTRA:                   0.209
REMARK UNBOUND:                -0.028
REMARK SMILES Nc1ccc(S(=O)(=O)O)c2ccccc12
REMARK SMILES IDX 2 1 15 2 14 3 13 4 12 5 11 6 10 7 5 8 4 9 3 10 1 11 6 14
REMARK SMILES IDX 7 15 8 16 9 17
REMARK H PARENT 1 12 1 13 9 18
ROOT
ATOM      1  C   UNL     1     -35.101   5.730   8.323  1.00  0.00    +0.039 A 
ATOM      2  C   UNL     1     -36.116   5.271   9.208  1.00  0.00    +0.006 A 
ATOM      3  C   UNL     1     -37.291   6.021   9.458  1.00  0.00    +0.011 A 
ATOM      4  C   UNL     1     -38.295   5.570  10.315  1.00  0.00    +0.001 A 
ATOM      5  C   UNL     1     -38.149   4.352  10.953  1.00  0.00    +0.001 A 
ATOM      6  C   UNL     1     -37.001   3.591  10.737  1.00  0.00    +0.010 A 
ATOM      7  C   UNL     1     -35.959   4.018   9.872  1.00  0.00    +0.005 A 
ATOM      8  C   UNL     1     -34.761   3.287   9.638  1.00  0.00    +0.102 A 
ATOM      9  C   UNL     1     -33.745   3.788   8.817  1.00  0.00    +0.025 A 
ATOM     10  C   UNL     1     -33.911   5.010   8.185  1.00  0.00    +0.027 A 
ENDROOT
BRANCH   1  11
ATOM     11  N   UNL     1     -35.129   7.010   7.718  1.00  0.00    -0.398 N 
ATOM     12  H   UNL     1     -35.566   7.713   8.303  1.00  0.00    +0.156 HD
ATOM     13  H   UNL     1     -34.184   7.305   7.479  1.00  0.00    +0.156 HD
ENDBRANCH   1  11
BRANCH   8  14
ATOM     14  S   UNL     1     -34.482   1.690  10.372  1.00  0.00    +0.295 S 
ATOM     15  O   UNL     1     -33.501   0.982   9.576  1.00  0.00    -0.194 OA
ATOM     16  O   UNL     1     -34.309   1.870  11.796  1.00  0.00    -0.194 OA
BRANCH  14  17
ATOM     17  O   UNL     1     -35.853   0.874  10.126  1.00  0.00    -0.282 OA
ATOM     18  H   UNL     1     -36.152   1.076   9.214  1.00  0.00    +0.234 HD
ENDBRANCH  14  17
ENDBRANCH   8  14
TORSDOF 3
ENDMDL
