MODEL 1
REMARK VINA RESULT:    -8.513      0.000      0.000
REMARK INTER + INTRA:         -10.044
REMARK INTER:                 -10.255
REMARK INTRA:                   0.211
REMARK UNBOUND:                 0.211
REMARK SMILES C=C(C)C[C@@](C)(O)c1cccc2ccccc12
REMARK SMILES IDX 4 1 2 2 1 3 3 4 5 5 6 6 7 7 8 9 17 10 9 11 16 12 12 13 10 14
REMARK SMILES IDX 15 15 13 16 11 17 14 18
REMARK H PARENT 7 8
ROOT
ATOM      1  C   UNL     1     -26.649   8.677   7.202  1.00  0.00    +0.070 C 
ENDROOT
BRANCH   1   2
ATOM      2  C   UNL     1     -25.704   7.508   6.972  1.00  0.00    -0.077 C 
ATOM      3  C   UNL     1     -26.111   6.234   7.107  1.00  0.00    +0.007 C 
ATOM      4  C   UNL     1     -24.305   7.840   6.530  1.00  0.00    +0.039 C 
ENDBRANCH   1   2
BRANCH   1   5
ATOM      5  C   UNL     1     -26.928   9.618   5.988  1.00  0.00    +0.091 C 
ATOM      6  C   UNL     1     -25.762  10.611   5.801  1.00  0.00    +0.048 C 
BRANCH   5   7
ATOM      7  O   UNL     1     -26.945   8.868   4.763  1.00  0.00    -0.385 OA
ATOM      8  H   UNL     1     -26.141   9.112   4.271  1.00  0.00    +0.211 HD
ENDBRANCH   5   7
BRANCH   5   9
ATOM      9  C   UNL     1     -28.309  10.299   6.179  1.00  0.00    -0.009 A 
ATOM     10  C   UNL     1     -29.460   9.592   6.680  1.00  0.00    -0.012 A 
ATOM     11  C   UNL     1     -28.445  11.673   5.883  1.00  0.00    +0.007 A 
ATOM     12  C   UNL     1     -29.479   8.223   7.054  1.00  0.00    +0.009 A 
ATOM     13  C   UNL     1     -30.689  10.295   6.824  1.00  0.00    -0.018 A 
ATOM     14  C   UNL     1     -29.657  12.338   6.035  1.00  0.00    +0.001 A 
ATOM     15  C   UNL     1     -30.631   7.587   7.530  1.00  0.00    +0.001 A 
ATOM     16  C   UNL     1     -31.839   9.643   7.301  1.00  0.00    +0.009 A 
ATOM     17  C   UNL     1     -30.770  11.651   6.497  1.00  0.00    +0.009 A 
ATOM     18  C   UNL     1     -31.812   8.297   7.651  1.00  0.00    +0.001 A 
ENDBRANCH   5   9
ENDBRANCH   1   5
TORSDOF 4
ENDMDL
MODEL 2
REMARK VINA RESULT:    -8.334      2.018      5.371
REMARK INTER + INTRA:          -9.828
REMARK INTER:                  -9.859
REMARK INTRA:                   0.030
REMARK UNBOUND:                 0.211
REMARK SMILES C=C(C)C[C@@](C)(O)c1cccc2ccccc12
REMARK SMILES IDX 4 1 2 2 1 3 3 4 5 5 6 6 7 7 8 9 17 10 9 11 16 12 12 13 10 14
REMARK SMILES IDX 15 15 13 16 11 17 14 18
REMARK H PARENT 7 8
ROOT
ATOM      1  C   UNL     1     -32.155   9.158   6.098  1.00  0.00    +0.070 C 
ENDROOT
BRANCH   1   2
ATOM      2  C   UNL     1     -32.437   7.719   5.693  1.00  0.00    -0.077 C 
ATOM      3  C   UNL     1     -31.786   7.133   4.674  1.00  0.00    +0.007 C 
ATOM      4  C   UNL     1     -33.437   6.961   6.522  1.00  0.00    +0.039 C 
ENDBRANCH   1   2
BRANCH   1   5
ATOM      5  C   UNL     1     -31.372   9.384   7.430  1.00  0.00    +0.091 C 
ATOM      6  C   UNL     1     -31.815  10.704   8.094  1.00  0.00    +0.048 C 
BRANCH   5   7
ATOM      7  O   UNL     1     -31.718   8.378   8.395  1.00  0.00    -0.385 OA
ATOM      8  H   UNL     1     -32.537   8.672   8.830  1.00  0.00    +0.211 HD
ENDBRANCH   5   7
BRANCH   5   9
ATOM      9  C   UNL     1     -29.849   9.303   7.144  1.00  0.00    -0.009 A 
ATOM     10  C   UNL     1     -29.117  10.379   6.527  1.00  0.00    -0.012 A 
ATOM     11  C   UNL     1     -29.138   8.146   7.530  1.00  0.00    +0.007 A 
ATOM     12  C   UNL     1     -29.677  11.617   6.113  1.00  0.00    +0.009 A 
ATOM     13  C   UNL     1     -27.721  10.221   6.302  1.00  0.00    -0.018 A 
ATOM     14  C   UNL     1     -27.772   8.016   7.302  1.00  0.00    +0.001 A 
ATOM     15  C   UNL     1     -28.917  12.625   5.512  1.00  0.00    +0.001 A 
ATOM     16  C   UNL     1     -26.969  11.240   5.695  1.00  0.00    +0.009 A 
ATOM     17  C   UNL     1     -27.072   9.044   6.687  1.00  0.00    +0.009 A 
ATOM     18  C   UNL     1     -27.562  12.437   5.301  1.00  0.00    +0.001 A 
ENDBRANCH   5   9
ENDBRANCH   1   5
TORSDOF 4
ENDMDL
MODEL 3
REMARK VINA RESULT:    -8.240      5.437      8.736
REMARK INTER + INTRA:          -9.715
REMARK INTER:                  -9.462
REMARK INTRA:                  -0.253
REMARK UNBOUND:                 0.211
REMARK SMILES C=C(C)C[C@@](C)(O)c1cccc2ccccc12
REMARK SMILES IDX 4 1 2 2 1 3 3 4 5 5 6 6 7 7 8 9 17 10 9 11 16 12 12 13 10 14
REMARK SMILES IDX 15 15 13 16 11 17 14 18
REMARK H PARENT 7 8
ROOT
ATOM      1  C   UNL     1     -36.200   4.210   8.428  1.00  0.00    +0.070 C 
ENDROOT
BRANCH   1   2
ATOM      2  C   UNL     1     -36.626   4.475   9.864  1.00  0.00    -0.077 C 
ATOM      3  C   UNL     1     -36.163   5.531  10.554  1.00  0.00    +0.007 C 
ATOM      4  C   UNL     1     -37.634   3.531  10.460  1.00  0.00    +0.039 C 
ENDBRANCH   1   2
BRANCH   1   5
ATOM      5  C   UNL     1     -34.823   3.505   8.211  1.00  0.00    +0.091 C 
ATOM      6  C   UNL     1     -34.627   2.384   9.252  1.00  0.00    +0.048 C 
BRANCH   5   7
ATOM      7  O   UNL     1     -34.804   2.815   6.951  1.00  0.00    -0.385 OA
ATOM      8  H   UNL     1     -35.584   3.113   6.452  1.00  0.00    +0.211 HD
ENDBRANCH   5   7
BRANCH   5   9
ATOM      9  C   UNL     1     -33.699   4.573   8.216  1.00  0.00    -0.009 A 
ATOM     10  C   UNL     1     -33.487   5.483   7.119  1.00  0.00    -0.012 A 
ATOM     11  C   UNL     1     -32.864   4.687   9.349  1.00  0.00    +0.007 A 
ATOM     12  C   UNL     1     -34.259   5.520   5.928  1.00  0.00    +0.009 A 
ATOM     13  C   UNL     1     -32.431   6.432   7.207  1.00  0.00    -0.018 A 
ATOM     14  C   UNL     1     -31.839   5.626   9.412  1.00  0.00    +0.001 A 
ATOM     15  C   UNL     1     -34.003   6.424   4.891  1.00  0.00    +0.001 A 
ATOM     16  C   UNL     1     -32.183   7.333   6.158  1.00  0.00    +0.009 A 
ATOM     17  C   UNL     1     -31.623   6.486   8.346  1.00  0.00    +0.009 A 
ATOM     18  C   UNL     1     -32.963   7.330   5.005  1.00  0.00    +0.001 A 
ENDBRANCH   5   9
ENDBRANCH   1   5
TORSDOF 4
ENDMDL
MODEL 4
REMARK VINA RESULT:    -8.062      2.701      5.994
REMARK INTER + INTRA:          -9.501
REMARK INTER:                  -9.834
REMARK INTRA:                   0.333
REMARK UNBOUND:                 0.211
REMARK SMILES C=C(C)C[C@@](C)(O)c1cccc2ccccc12
REMARK SMILES IDX 4 1 2 2 1 3 3 4 5 5 6 6 7 7 8 9 17 10 9 11 16 12 12 13 10 14
REMARK SMILES IDX 15 15 13 16 11 17 14 18
REMARK H PARENT 7 8
ROOT
ATOM      1  C   UNL     1     -32.670   6.147   8.114  1.00  0.00    +0.070 C 
ENDROOT
BRANCH   1   2
ATOM      2  C   UNL     1     -34.025   5.461   8.031  1.00  0.00    -0.077 C 
ATOM      3  C   UNL     1     -35.173   6.151   8.136  1.00  0.00    +0.007 C 
ATOM      4  C   UNL     1     -34.023   3.980   7.771  1.00  0.00    +0.039 C 
ENDBRANCH   1   2
BRANCH   1   5
ATOM      5  C   UNL     1     -32.464   7.426   7.242  1.00  0.00    +0.091 C 
ATOM      6  C   UNL     1     -32.909   7.159   5.789  1.00  0.00    +0.048 C 
BRANCH   5   7
ATOM      7  O   UNL     1     -33.333   8.481   7.682  1.00  0.00    -0.385 OA
ATOM      8  H   UNL     1     -34.050   8.549   7.027  1.00  0.00    +0.211 HD
ENDBRANCH   5   7
BRANCH   5   9
ATOM      9  C   UNL     1     -30.993   7.900   7.372  1.00  0.00    -0.009 A 
ATOM     10  C   UNL     1     -30.571   9.229   7.013  1.00  0.00    -0.012 A 
ATOM     11  C   UNL     1     -30.028   7.010   7.894  1.00  0.00    +0.007 A 
ATOM     12  C   UNL     1     -31.421  10.248   6.508  1.00  0.00    +0.009 A 
ATOM     13  C   UNL     1     -29.201   9.580   7.165  1.00  0.00    -0.018 A 
ATOM     14  C   UNL     1     -28.694   7.378   8.035  1.00  0.00    +0.001 A 
ATOM     15  C   UNL     1     -30.954  11.522   6.170  1.00  0.00    +0.001 A 
ATOM     16  C   UNL     1     -28.743  10.863   6.819  1.00  0.00    +0.009 A 
ATOM     17  C   UNL     1     -28.285   8.652   7.669  1.00  0.00    +0.009 A 
ATOM     18  C   UNL     1     -29.613  11.830   6.323  1.00  0.00    +0.001 A 
ENDBRANCH   5   9
ENDBRANCH   1   5
TORSDOF 4
ENDMDL
MODEL 5
REMARK VINA RESULT:    -7.671      6.876      9.790
REMARK INTER + INTRA:          -9.029
REMARK INTER:                  -9.121
REMARK INTRA:                   0.092
REMARK UNBOUND:                 0.211
REMARK SMILES C=C(C)C[C@@](C)(O)c1cccc2ccccc12
REMARK SMILES IDX 4 1 2 2 1 3 3 4 5 5 6 6 7 7 8 9 17 10 9 11 16 12 12 13 10 14
REMARK SMILES IDX 15 15 13 16 11 17 14 18
REMARK H PARENT 7 8
ROOT
ATOM      1  C   UNL     1     -34.866   6.310   7.600  1.00  0.00    +0.070 C 
ENDROOT
BRANCH   1   2
ATOM      2  C   UNL     1     -33.753   6.313   6.563  1.00  0.00    -0.077 C 
ATOM      3  C   UNL     1     -33.980   5.968   5.284  1.00  0.00    +0.007 C 
ATOM      4  C   UNL     1     -32.397   6.775   7.020  1.00  0.00    +0.039 C 
ENDBRANCH   1   2
BRANCH   1   5
ATOM      5  C   UNL     1     -34.901   5.115   8.604  1.00  0.00    +0.091 C 
ATOM      6  C   UNL     1     -34.368   3.833   7.929  1.00  0.00    +0.048 C 
BRANCH   5   7
ATOM      7  O   UNL     1     -33.985   5.341   9.688  1.00  0.00    -0.385 OA
ATOM      8  H   UNL     1     -33.283   5.922   9.349  1.00  0.00    +0.211 HD
ENDBRANCH   5   7
BRANCH   5   9
ATOM      9  C   UNL     1     -36.334   4.974   9.179  1.00  0.00    -0.009 A 
ATOM     10  C   UNL     1     -36.784   3.789   9.863  1.00  0.00    -0.012 A 
ATOM     11  C   UNL     1     -37.232   6.058   9.060  1.00  0.00    +0.007 A 
ATOM     12  C   UNL     1     -35.996   2.631  10.094  1.00  0.00    +0.009 A 
ATOM     13  C   UNL     1     -38.116   3.745  10.359  1.00  0.00    -0.018 A 
ATOM     14  C   UNL     1     -38.530   5.992   9.556  1.00  0.00    +0.001 A 
ATOM     15  C   UNL     1     -36.489   1.504  10.760  1.00  0.00    +0.001 A 
ATOM     16  C   UNL     1     -38.600   2.606  11.025  1.00  0.00    +0.009 A 
ATOM     17  C   UNL     1     -38.968   4.842  10.195  1.00  0.00    +0.009 A 
ATOM     18  C   UNL     1     -37.793   1.490  11.224  1.00  0.00    +0.001 A 
ENDBRANCH   5   9
ENDBRANCH   1   5
TORSDOF 4
ENDMDL
MODEL 6
REMARK VINA RESULT:    -7.554      8.169     10.246
REMARK INTER + INTRA:          -8.889
REMARK INTER:                  -8.658
REMARK INTRA:                  -0.230
REMARK UNBOUND:                 0.211
REMARK SMILES C=C(C)C[C@@](C)(O)c1cccc2ccccc12
REMARK SMILES IDX 4 1 2 2 1 3 3 4 5 5 6 6 7 7 8 9 17 10 9 11 16 12 12 13 10 14
REMARK SMILES IDX 15 15 13 16 11 17 14 18
REMARK H PARENT 7 8
ROOT
ATOM      1  C   UNL     1     -27.001   2.701  10.591  1.00  0.00    +0.070 C 
ENDROOT
BRANCH   1   2
ATOM      2  C   UNL     1     -25.965   3.591  11.262  1.00  0.00    -0.077 C 
ATOM      3  C   UNL     1     -26.099   3.992  12.537  1.00  0.00    +0.007 C 
ATOM      4  C   UNL     1     -24.754   3.957  10.449  1.00  0.00    +0.039 C 
ENDBRANCH   1   2
BRANCH   1   5
ATOM      5  C   UNL     1     -26.848   1.159  10.784  1.00  0.00    +0.091 C 
ATOM      6  C   UNL     1     -26.120   0.539   9.573  1.00  0.00    +0.048 C 
BRANCH   5   7
ATOM      7  O   UNL     1     -25.981   0.874  11.893  1.00  0.00    -0.385 OA
ATOM      8  H   UNL     1     -25.389   0.155  11.611  1.00  0.00    +0.211 HD
ENDBRANCH   5   7
BRANCH   5   9
ATOM      9  C   UNL     1     -28.243   0.541  11.064  1.00  0.00    -0.009 A 
ATOM     10  C   UNL     1     -28.903   0.660  12.339  1.00  0.00    -0.012 A 
ATOM     11  C   UNL     1     -28.914  -0.141  10.025  1.00  0.00    +0.007 A 
ATOM     12  C   UNL     1     -28.379   1.340  13.470  1.00  0.00    +0.009 A 
ATOM     13  C   UNL     1     -30.182   0.062  12.509  1.00  0.00    -0.018 A 
ATOM     14  C   UNL     1     -30.166  -0.716  10.216  1.00  0.00    +0.001 A 
ATOM     15  C   UNL     1     -29.064   1.418  14.687  1.00  0.00    +0.001 A 
ATOM     16  C   UNL     1     -30.858   0.145  13.738  1.00  0.00    +0.009 A 
ATOM     17  C   UNL     1     -30.791  -0.619  11.451  1.00  0.00    +0.009 A 
ATOM     18  C   UNL     1     -30.304   0.819  14.823  1.00  0.00    +0.001 A 
ENDBRANCH   5   9
ENDBRANCH   1   5
TORSDOF 4
ENDMDL
MODEL 7
REMARK VINA RESULT:    -7.545      8.405     10.286
REMARK INTER + INTRA:          -8.878
REMARK INTER:                  -8.508
REMARK INTRA:                  -0.369
REMARK UNBOUND:                 0.211
REMARK SMILES C=C(C)C[C@@](C)(O)c1cccc2ccccc12
REMARK SMILES IDX 4 1 2 2 1 3 3 4 5 5 6 6 7 7 8 9 17 10 9 11 16 12 12 13 10 14
REMARK SMILES IDX 15 15 13 16 11 17 14 18
REMARK H PARENT 7 8
ROOT
ATOM      1  C   UNL     1     -27.003   1.021   9.953  1.00  0.00    +0.070 C 
ENDROOT
BRANCH   1   2
ATOM      2  C   UNL     1     -26.121   0.087  10.767  1.00  0.00    -0.077 C 
ATOM      3  C   UNL     1     -26.500  -1.171  11.052  1.00  0.00    +0.007 C 
ATOM      4  C   UNL     1     -24.779   0.615  11.191  1.00  0.00    +0.039 C 
ENDBRANCH   1   2
BRANCH   1   5
ATOM      5  C   UNL     1     -27.797   2.114  10.736  1.00  0.00    +0.091 C 
ATOM      6  C   UNL     1     -26.830   3.172  11.307  1.00  0.00    +0.048 C 
BRANCH   5   7
ATOM      7  O   UNL     1     -28.640   2.861   9.844  1.00  0.00    -0.385 OA
ATOM      8  H   UNL     1     -29.216   3.416  10.397  1.00  0.00    +0.211 HD
ENDBRANCH   5   7
BRANCH   5   9
ATOM      9  C   UNL     1     -28.684   1.429  11.808  1.00  0.00    -0.009 A 
ATOM     10  C   UNL     1     -29.695   0.458  11.475  1.00  0.00    -0.012 A 
ATOM     11  C   UNL     1     -28.478   1.739  13.171  1.00  0.00    +0.007 A 
ATOM     12  C   UNL     1     -30.000   0.015  10.161  1.00  0.00    +0.009 A 
ATOM     13  C   UNL     1     -30.463  -0.122  12.522  1.00  0.00    -0.018 A 
ATOM     14  C   UNL     1     -29.242   1.156  14.177  1.00  0.00    +0.001 A 
ATOM     15  C   UNL     1     -30.999  -0.928   9.896  1.00  0.00    +0.001 A 
ATOM     16  C   UNL     1     -31.465  -1.066  12.242  1.00  0.00    +0.009 A 
ATOM     17  C   UNL     1     -30.229   0.238  13.853  1.00  0.00    +0.009 A 
ATOM     18  C   UNL     1     -31.734  -1.467  10.937  1.00  0.00    +0.001 A 
ENDBRANCH   5   9
ENDBRANCH   1   5
TORSDOF 4
ENDMDL
MODEL 8
REMARK VINA RESULT:    -7.497      7.002      9.710
REMARK INTER + INTRA:          -8.821
REMARK INTER:                  -8.614
REMARK INTRA:                  -0.207
REMARK UNBOUND:                 0.211
REMARK SMILES C=C(C)C[C@@](C)(O)c1cccc2ccccc12
REMARK SMILES IDX 4 1 2 2 1 3 3 4 5 5 6 6 7 7 8 9 17 10 9 11 16 12 12 13 10 14
REMARK SMILES IDX 15 15 13 16 11 17 14 18
REMARK H PARENT 7 8
ROOT
ATOM      1  C   UNL     1     -33.878   5.042   9.741  1.00  0.00    +0.070 C 
ENDROOT
BRANCH   1   2
ATOM      2  C   UNL     1     -32.508   4.459   9.428  1.00  0.00    -0.077 C 
ATOM      3  C   UNL     1     -32.244   3.151   9.591  1.00  0.00    +0.007 C 
ATOM      4  C   UNL     1     -31.477   5.402   8.873  1.00  0.00    +0.039 C 
ENDBRANCH   1   2
BRANCH   1   5
ATOM      5  C   UNL     1     -34.930   5.049   8.588  1.00  0.00    +0.091 C 
ATOM      6  C   UNL     1     -34.739   6.294   7.697  1.00  0.00    +0.048 C 
BRANCH   5   7
ATOM      7  O   UNL     1     -34.707   3.947   7.695  1.00  0.00    -0.385 OA
ATOM      8  H   UNL     1     -34.646   3.145   8.243  1.00  0.00    +0.211 HD
ENDBRANCH   5   7
BRANCH   5   9
ATOM      9  C   UNL     1     -36.352   4.923   9.195  1.00  0.00    -0.009 A 
ATOM     10  C   UNL     1     -36.806   3.732   9.867  1.00  0.00    -0.012 A 
ATOM     11  C   UNL     1     -37.232   6.025   9.121  1.00  0.00    +0.007 A 
ATOM     12  C   UNL     1     -36.034   2.556  10.055  1.00  0.00    +0.009 A 
ATOM     13  C   UNL     1     -38.126   3.702  10.396  1.00  0.00    -0.018 A 
ATOM     14  C   UNL     1     -38.518   5.972   9.648  1.00  0.00    +0.001 A 
ATOM     15  C   UNL     1     -36.531   1.424  10.712  1.00  0.00    +0.001 A 
ATOM     16  C   UNL     1     -38.614   2.559  11.050  1.00  0.00    +0.009 A 
ATOM     17  C   UNL     1     -38.962   4.817  10.275  1.00  0.00    +0.009 A 
ATOM     18  C   UNL     1     -37.823   1.425  11.208  1.00  0.00    +0.001 A 
ENDBRANCH   5   9
ENDBRANCH   1   5
TORSDOF 4
ENDMDL
MODEL 9
REMARK VINA RESULT:    -7.218      6.762      9.773
REMARK INTER + INTRA:          -8.484
REMARK INTER:                  -8.497
REMARK INTRA:                   0.013
REMARK UNBOUND:                 0.211
REMARK SMILES C=C(C)C[C@@](C)(O)c1cccc2ccccc12
REMARK SMILES IDX 4 1 2 2 1 3 3 4 5 5 6 6 7 7 8 9 17 10 9 11 16 12 12 13 10 14
REMARK SMILES IDX 15 15 13 16 11 17 14 18
REMARK H PARENT 7 8
ROOT
ATOM      1  C   UNL     1     -33.650   4.962   9.349  1.00  0.00    +0.070 C 
ENDROOT
BRANCH   1   2
ATOM      2  C   UNL     1     -32.366   5.481   8.719  1.00  0.00    -0.077 C 
ATOM      3  C   UNL     1     -31.167   4.963   9.034  1.00  0.00    +0.007 C 
ATOM      4  C   UNL     1     -32.504   6.564   7.685  1.00  0.00    +0.039 C 
ENDBRANCH   1   2
BRANCH   1   5
ATOM      5  C   UNL     1     -34.273   3.668   8.736  1.00  0.00    +0.091 C 
ATOM      6  C   UNL     1     -34.505   3.852   7.222  1.00  0.00    +0.048 C 
BRANCH   5   7
ATOM      7  O   UNL     1     -33.342   2.576   8.812  1.00  0.00    -0.385 OA
ATOM      8  H   UNL     1     -32.450   2.963   8.807  1.00  0.00    +0.211 HD
ENDBRANCH   5   7
BRANCH   5   9
ATOM      9  C   UNL     1     -35.552   3.294   9.528  1.00  0.00    -0.009 A 
ATOM     10  C   UNL     1     -36.686   4.177   9.634  1.00  0.00    -0.012 A 
ATOM     11  C   UNL     1     -35.632   2.027  10.146  1.00  0.00    +0.007 A 
ATOM     12  C   UNL     1     -36.776   5.465   9.043  1.00  0.00    +0.009 A 
ATOM     13  C   UNL     1     -37.820   3.753  10.380  1.00  0.00    -0.018 A 
ATOM     14  C   UNL     1     -36.754   1.634  10.870  1.00  0.00    +0.001 A 
ATOM     15  C   UNL     1     -37.902   6.283   9.185  1.00  0.00    +0.001 A 
ATOM     16  C   UNL     1     -38.944   4.585  10.518  1.00  0.00    +0.009 A 
ATOM     17  C   UNL     1     -37.836   2.494  10.989  1.00  0.00    +0.009 A 
ATOM     18  C   UNL     1     -38.986   5.843   9.925  1.00  0.00    +0.001 A 
ENDBRANCH   5   9
ENDBRANCH   1   5
TORSDOF 4
ENDMDL
