REMARK SMILES CCCC(=O)c1cc(C)ccc1OC
REMARK SMILES IDX 4 1 5 2 3 3 2 4 1 5 6 6 12 7 7 8 11 9 8 10 10 11 9 12 13 13
REMARK SMILES IDX 14 14
REMARK H PARENT
ROOT
ATOM      1  C   UNL     1       1.046   0.278  -0.979  1.00  0.00    +0.166 C 
ATOM      2  O   UNL     1       1.356   0.083  -2.154  1.00  0.00    -0.294 OA
ENDROOT
BRANCH   1   3
ATOM      3  C   UNL     1       2.088   0.487   0.102  1.00  0.00    +0.081 C 
BRANCH   3   4
ATOM      4  C   UNL     1       3.027  -0.711   0.193  1.00  0.00    +0.005 C 
ATOM      5  C   UNL     1       4.066  -0.521   1.286  1.00  0.00    +0.004 C 
ENDBRANCH   3   4
ENDBRANCH   1   3
BRANCH   1   6
ATOM      6  C   UNL     1      -0.390   0.388  -0.628  1.00  0.00    +0.060 A 
ATOM      7  C   UNL     1      -0.950  -0.254   0.480  1.00  0.00    +0.129 A 
ATOM      8  C   UNL     1      -1.210   1.141  -1.481  1.00  0.00    +0.019 A 
ATOM      9  C   UNL     1      -2.305  -0.083   0.773  1.00  0.00    +0.047 A 
ATOM     10  C   UNL     1      -2.572   1.307  -1.199  1.00  0.00    -0.050 A 
ATOM     11  C   UNL     1      -3.114   0.687  -0.067  1.00  0.00    +0.007 A 
ATOM     12  C   UNL     1      -3.445   2.096  -2.130  1.00  0.00    +0.044 C 
BRANCH   7  13
ATOM     13  O   UNL     1      -0.184  -1.033   1.305  1.00  0.00    -0.496 OA
ATOM     14  C   UNL     1      -0.456  -2.419   1.085  1.00  0.00    +0.278 C 
ENDBRANCH   7  13
ENDBRANCH   1   6
TORSDOF 4
