REMARK SMILES COc1nc(C)nc2c1cnn2-c1ccccc1
REMARK SMILES IDX 3 1 9 2 10 3 11 4 12 5 8 6 7 7 5 8 4 9 6 10 2 11 1 12 13 13
REMARK SMILES IDX 14 14 18 15 15 16 17 17 16 18
REMARK H PARENT
ROOT
ATOM      1  C   UNL     1      -2.579   0.384   0.607  1.00  0.00    +0.227 A 
ATOM      2  C   UNL     1      -1.264   0.597   0.998  1.00  0.00    +0.102 A 
ATOM      3  C   UNL     1      -0.589   1.254   2.032  1.00  0.00    +0.151 A 
ATOM      4  N   UNL     1       0.736   1.148   1.934  1.00  0.00    -0.174 NA
ATOM      5  N   UNL     1       0.942   0.400   0.802  1.00  0.00    -0.214 N 
ATOM      6  C   UNL     1      -0.271   0.047   0.207  1.00  0.00    +0.170 A 
ATOM      7  N   UNL     1      -0.487  -0.678  -0.910  1.00  0.00    -0.213 NA
ATOM      8  C   UNL     1      -1.792  -0.837  -1.200  1.00  0.00    +0.131 A 
ATOM      9  N   UNL     1      -2.835  -0.337  -0.506  1.00  0.00    -0.198 NA
ATOM     10  C   UNL     1      -2.118  -1.607  -2.444  1.00  0.00    +0.090 C 
ENDROOT
BRANCH   1  11
ATOM     11  O   UNL     1      -3.612   0.911   1.354  1.00  0.00    -0.480 OA
ATOM     12  C   UNL     1      -4.897   0.605   0.823  1.00  0.00    +0.280 C 
ENDBRANCH   1  11
BRANCH   5  13
ATOM     13  C   UNL     1       2.278   0.092   0.396  1.00  0.00    +0.067 A 
ATOM     14  C   UNL     1       3.354   0.564   1.167  1.00  0.00    +0.028 A 
ATOM     15  C   UNL     1       2.550  -0.667  -0.750  1.00  0.00    +0.028 A 
ATOM     16  C   UNL     1       4.672   0.282   0.799  1.00  0.00    +0.002 A 
ATOM     17  C   UNL     1       3.871  -0.947  -1.114  1.00  0.00    +0.002 A 
ATOM     18  C   UNL     1       4.930  -0.473  -0.342  1.00  0.00    +0.000 A 
ENDBRANCH   5  13
TORSDOF 2
