REMARK SMILES Cn1ncc2c(Nc3cc(Cl)ccc3Cl)ncnc21
REMARK SMILES IDX 7 1 6 3 2 4 3 5 19 6 4 7 18 8 5 9 17 10 16 11 1 12 8 13
REMARK SMILES IDX 14 14 9 15 13 16 10 17 12 18 15 19 11 20
REMARK H PARENT 7 2
ROOT
ATOM      1  N   UNL     1      -0.805  -0.748  -0.427  1.00  0.00    -0.338 N 
ATOM      2  H   UNL     1      -0.628  -1.742  -0.354  1.00  0.00    +0.168 HD
ENDROOT
BRANCH   1   3
ATOM      3  C   UNL     1       0.301   0.009   0.006  1.00  0.00    +0.145 A 
ATOM      4  N   UNL     1       3.797  -0.341   0.119  1.00  0.00    -0.250 N 
ATOM      5  N   UNL     1       3.606  -1.540  -0.480  1.00  0.00    -0.179 NA
ATOM      6  C   UNL     1       2.635   0.341   0.360  1.00  0.00    +0.163 A 
ATOM      7  C   UNL     1       2.279  -1.598  -0.632  1.00  0.00    +0.149 A 
ATOM      8  N   UNL     1       2.501   1.546   0.940  1.00  0.00    -0.217 NA
ATOM      9  C   UNL     1       1.615  -0.464  -0.118  1.00  0.00    +0.082 A 
ATOM     10  C   UNL     1       1.210   1.910   1.012  1.00  0.00    +0.226 A 
ATOM     11  N   UNL     1       0.130   1.220   0.597  1.00  0.00    -0.218 NA
ATOM     12  C   UNL     1       5.136   0.089   0.435  1.00  0.00    +0.176 C 
ENDBRANCH   1   3
BRANCH   1  13
ATOM     13  C   UNL     1      -2.160  -0.388  -0.253  1.00  0.00    +0.060 A 
ATOM     14  C   UNL     1      -2.735   0.764  -0.831  1.00  0.00    +0.064 A 
ATOM     15  C   UNL     1      -2.954  -1.167   0.605  1.00  0.00    +0.048 A 
ATOM     16  C   UNL     1      -4.064   1.112  -0.561  1.00  0.00    +0.024 A 
ATOM     17  C   UNL     1      -4.278  -0.812   0.870  1.00  0.00    +0.043 A 
ATOM     18  C   UNL     1      -4.836   0.324   0.292  1.00  0.00    +0.022 A 
ATOM     19 Cl   UNL     1      -1.879   1.742  -1.975  1.00  0.00    -0.082 Cl
ATOM     20 Cl   UNL     1      -5.226  -1.786   1.925  1.00  0.00    -0.084 Cl
ENDBRANCH   1  13
TORSDOF 2
