MODEL 1
REMARK VINA RESULT:    -8.165      0.000      0.000
REMARK INTER + INTRA:         -15.175
REMARK INTER:                 -13.416
REMARK INTRA:                  -1.759
REMARK UNBOUND:                -1.759
REMARK SMILES CC(=O)OC[C@@H]1O[C@H](Sc2cccc3ccccc23)[C@H](OC(C)=O)[C@@H](OC(C)=O)[C@@H]1OC(C)=O
REMARK SMILES IDX 6 1 7 2 8 3 20 4 25 5 30 6 5 7 4 8 2 9 3 10 1 11 31 12 32 13
REMARK SMILES IDX 34 14 33 15 9 16 10 17 19 18 11 19 18 20 14 21 12 22 17 23
REMARK SMILES IDX 15 24 13 25 16 26 26 27 27 28 29 29 28 30 21 31 22 32 24 33
REMARK SMILES IDX 23 34
REMARK H PARENT
ROOT
ATOM      1  C   UNL     1     -29.587   0.423  12.017  1.00  0.00    +0.202 C 
ATOM      2  O   UNL     1     -28.646  -0.036  11.028  1.00  0.00    -0.352 OA
ATOM      3  C   UNL     1     -27.381  -0.364  11.611  1.00  0.00    +0.226 C 
ATOM      4  C   UNL     1     -27.525  -1.559  12.580  1.00  0.00    +0.260 C 
ATOM      5  C   UNL     1     -28.594  -1.224  13.647  1.00  0.00    +0.264 C 
ATOM      6  C   UNL     1     -29.908  -0.715  13.007  1.00  0.00    +0.253 C 
ENDROOT
BRANCH   1   7
ATOM      7  C   UNL     1     -30.821   0.962  11.282  1.00  0.00    +0.269 C 
BRANCH   7   8
ATOM      8  O   UNL     1     -30.448   1.916  10.263  1.00  0.00    -0.463 OA
BRANCH   8   9
ATOM      9  C   UNL     1     -31.478   2.523   9.616  1.00  0.00    +0.302 C 
ATOM     10  O   UNL     1     -32.551   1.999   9.345  1.00  0.00    -0.253 OA
ATOM     11  C   UNL     1     -31.123   3.941   9.294  1.00  0.00    +0.139 C 
ENDBRANCH   8   9
ENDBRANCH   7   8
ENDBRANCH   1   7
BRANCH   6  12
ATOM     12  O   UNL     1     -30.526  -1.841  12.342  1.00  0.00    -0.455 OA
BRANCH  12  13
ATOM     13  C   UNL     1     -31.433  -2.563  13.050  1.00  0.00    +0.303 C 
ATOM     14  O   UNL     1     -31.449  -2.680  14.266  1.00  0.00    -0.253 OA
ATOM     15  C   UNL     1     -32.437  -3.175  12.123  1.00  0.00    +0.139 C 
ENDBRANCH  12  13
ENDBRANCH   6  12
BRANCH   3  16
ATOM     16  S   UNL     1     -26.150  -0.722  10.298  1.00  0.00    -0.090 SA
BRANCH  16  17
ATOM     17  C   UNL     1     -25.113   0.734  10.503  1.00  0.00    +0.018 A 
ATOM     18  C   UNL     1     -25.514   2.036  10.093  1.00  0.00    -0.005 A 
ATOM     19  C   UNL     1     -23.859   0.532  11.098  1.00  0.00    +0.016 A 
ATOM     20  C   UNL     1     -26.767   2.338   9.503  1.00  0.00    +0.010 A 
ATOM     21  C   UNL     1     -24.606   3.110  10.285  1.00  0.00    -0.017 A 
ATOM     22  C   UNL     1     -22.985   1.597  11.285  1.00  0.00    +0.002 A 
ATOM     23  C   UNL     1     -27.102   3.635   9.110  1.00  0.00    +0.001 A 
ATOM     24  C   UNL     1     -24.959   4.409   9.883  1.00  0.00    +0.009 A 
ATOM     25  C   UNL     1     -23.357   2.876  10.878  1.00  0.00    +0.009 A 
ATOM     26  C   UNL     1     -26.196   4.671   9.298  1.00  0.00    +0.001 A 
ENDBRANCH  16  17
ENDBRANCH   3  16
BRANCH   5  27
ATOM     27  O   UNL     1     -28.034  -0.214  14.522  1.00  0.00    -0.454 OA
BRANCH  27  28
ATOM     28  C   UNL     1     -28.811   0.147  15.582  1.00  0.00    +0.303 C 
ATOM     29  O   UNL     1     -29.151   1.289  15.846  1.00  0.00    -0.253 OA
ATOM     30  C   UNL     1     -29.169  -1.060  16.392  1.00  0.00    +0.139 C 
ENDBRANCH  27  28
ENDBRANCH   5  27
BRANCH   4  31
ATOM     31  O   UNL     1     -27.911  -2.742  11.843  1.00  0.00    -0.455 OA
BRANCH  31  32
ATOM     32  C   UNL     1     -27.393  -3.914  12.292  1.00  0.00    +0.303 C 
ATOM     33  O   UNL     1     -26.247  -4.294  12.106  1.00  0.00    -0.253 OA
ATOM     34  C   UNL     1     -28.431  -4.678  13.053  1.00  0.00    +0.139 C 
ENDBRANCH  31  32
ENDBRANCH   4  31
TORSDOF 11
ENDMDL
MODEL 2
REMARK VINA RESULT:    -8.122      1.121      2.221
REMARK INTER + INTRA:         -15.105
REMARK INTER:                 -13.142
REMARK INTRA:                  -1.963
REMARK UNBOUND:                -1.759
REMARK SMILES CC(=O)OC[C@@H]1O[C@H](Sc2cccc3ccccc23)[C@H](OC(C)=O)[C@@H](OC(C)=O)[C@@H]1OC(C)=O
REMARK SMILES IDX 6 1 7 2 8 3 20 4 25 5 30 6 5 7 4 8 2 9 3 10 1 11 31 12 32 13
REMARK SMILES IDX 34 14 33 15 9 16 10 17 19 18 11 19 18 20 14 21 12 22 17 23
REMARK SMILES IDX 15 24 13 25 16 26 26 27 27 28 29 29 28 30 21 31 22 32 24 33
REMARK SMILES IDX 23 34
REMARK H PARENT
ROOT
ATOM      1  C   UNL     1     -30.525   0.381  12.440  1.00  0.00    +0.202 C 
ATOM      2  O   UNL     1     -29.778   0.199  11.222  1.00  0.00    -0.352 OA
ATOM      3  C   UNL     1     -28.367   0.278  11.449  1.00  0.00    +0.226 C 
ATOM      4  C   UNL     1     -27.899  -0.881  12.357  1.00  0.00    +0.260 C 
ATOM      5  C   UNL     1     -28.707  -0.854  13.675  1.00  0.00    +0.264 C 
ATOM      6  C   UNL     1     -30.232  -0.777  13.416  1.00  0.00    +0.253 C 
ENDROOT
BRANCH   1   7
ATOM      7  C   UNL     1     -32.009   0.508  12.070  1.00  0.00    +0.269 C 
BRANCH   7   8
ATOM      8  O   UNL     1     -32.299   1.809  11.511  1.00  0.00    -0.463 OA
BRANCH   8   9
ATOM      9  C   UNL     1     -32.477   1.846  10.164  1.00  0.00    +0.302 C 
ATOM     10  O   UNL     1     -33.306   1.195   9.541  1.00  0.00    -0.253 OA
ATOM     11  C   UNL     1     -31.521   2.816   9.543  1.00  0.00    +0.139 C 
ENDBRANCH   8   9
ENDBRANCH   7   8
ENDBRANCH   1   7
BRANCH   6  12
ATOM     12  O   UNL     1     -30.639  -2.052  12.868  1.00  0.00    -0.455 OA
BRANCH  12  13
ATOM     13  C   UNL     1     -30.929  -3.045  13.748  1.00  0.00    +0.303 C 
ATOM     14  O   UNL     1     -31.353  -2.883  14.882  1.00  0.00    -0.253 OA
ATOM     15  C   UNL     1     -30.685  -4.380  13.114  1.00  0.00    +0.139 C 
ENDBRANCH  12  13
ENDBRANCH   6  12
BRANCH   3  16
ATOM     16  S   UNL     1     -27.466   0.273   9.850  1.00  0.00    -0.090 SA
BRANCH  16  17
ATOM     17  C   UNL     1     -26.294   1.592  10.202  1.00  0.00    +0.018 A 
ATOM     18  C   UNL     1     -24.902   1.363  10.391  1.00  0.00    -0.005 A 
ATOM     19  C   UNL     1     -26.819   2.890  10.288  1.00  0.00    +0.016 A 
ATOM     20  C   UNL     1     -24.282   0.092  10.305  1.00  0.00    +0.010 A 
ATOM     21  C   UNL     1     -24.073   2.477  10.685  1.00  0.00    -0.017 A 
ATOM     22  C   UNL     1     -25.990   3.971  10.569  1.00  0.00    +0.002 A 
ATOM     23  C   UNL     1     -22.910  -0.073  10.509  1.00  0.00    +0.001 A 
ATOM     24  C   UNL     1     -22.695   2.293  10.889  1.00  0.00    +0.009 A 
ATOM     25  C   UNL     1     -24.627   3.762  10.768  1.00  0.00    +0.009 A 
ATOM     26  C   UNL     1     -22.118   1.028  10.805  1.00  0.00    +0.001 A 
ENDBRANCH  16  17
ENDBRANCH   3  16
BRANCH   5  27
ATOM     27  O   UNL     1     -28.265   0.298  14.434  1.00  0.00    -0.454 OA
BRANCH  27  28
ATOM     28  C   UNL     1     -28.830   0.447  15.665  1.00  0.00    +0.303 C 
ATOM     29  O   UNL     1     -29.326   1.480  16.089  1.00  0.00    -0.253 OA
ATOM     30  C   UNL     1     -28.733  -0.833  16.435  1.00  0.00    +0.139 C 
ENDBRANCH  27  28
ENDBRANCH   5  27
BRANCH   4  31
ATOM     31  O   UNL     1     -28.094  -2.143  11.677  1.00  0.00    -0.455 OA
BRANCH  31  32
ATOM     32  C   UNL     1     -27.154  -3.094  11.914  1.00  0.00    +0.303 C 
ATOM     33  O   UNL     1     -27.140  -3.844  12.878  1.00  0.00    -0.253 OA
ATOM     34  C   UNL     1     -26.134  -3.093  10.818  1.00  0.00    +0.139 C 
ENDBRANCH  31  32
ENDBRANCH   4  31
TORSDOF 11
ENDMDL
MODEL 3
REMARK VINA RESULT:    -8.063      2.355      4.612
REMARK INTER + INTRA:         -15.007
REMARK INTER:                 -13.251
REMARK INTRA:                  -1.755
REMARK UNBOUND:                -1.759
REMARK SMILES CC(=O)OC[C@@H]1O[C@H](Sc2cccc3ccccc23)[C@H](OC(C)=O)[C@@H](OC(C)=O)[C@@H]1OC(C)=O
REMARK SMILES IDX 6 1 7 2 8 3 20 4 25 5 30 6 5 7 4 8 2 9 3 10 1 11 31 12 32 13
REMARK SMILES IDX 34 14 33 15 9 16 10 17 19 18 11 19 18 20 14 21 12 22 17 23
REMARK SMILES IDX 15 24 13 25 16 26 26 27 27 28 29 29 28 30 21 31 22 32 24 33
REMARK SMILES IDX 23 34
REMARK H PARENT
ROOT
ATOM      1  C   UNL     1     -27.853   2.265  10.710  1.00  0.00    +0.202 C 
ATOM      2  O   UNL     1     -27.375   0.992  10.236  1.00  0.00    -0.352 OA
ATOM      3  C   UNL     1     -27.242   0.045  11.301  1.00  0.00    +0.226 C 
ATOM      4  C   UNL     1     -28.622  -0.274  11.918  1.00  0.00    +0.260 C 
ATOM      5  C   UNL     1     -29.289   1.041  12.382  1.00  0.00    +0.264 C 
ATOM      6  C   UNL     1     -29.284   2.116  11.268  1.00  0.00    +0.253 C 
ENDROOT
BRANCH   1   7
ATOM      7  C   UNL     1     -27.748   3.270   9.555  1.00  0.00    +0.269 C 
BRANCH   7   8
ATOM      8  O   UNL     1     -26.963   4.422   9.934  1.00  0.00    -0.463 OA
BRANCH   8   9
ATOM      9  C   UNL     1     -25.734   4.513   9.360  1.00  0.00    +0.302 C 
ATOM     10  O   UNL     1     -25.520   4.744   8.177  1.00  0.00    -0.253 OA
ATOM     11  C   UNL     1     -24.666   4.307  10.389  1.00  0.00    +0.139 C 
ENDBRANCH   8   9
ENDBRANCH   7   8
ENDBRANCH   1   7
BRANCH   6  12
ATOM     12  O   UNL     1     -30.211   1.681  10.247  1.00  0.00    -0.455 OA
BRANCH  12  13
ATOM     13  C   UNL     1     -31.272   2.488   9.984  1.00  0.00    +0.303 C 
ATOM     14  O   UNL     1     -31.264   3.439   9.218  1.00  0.00    -0.253 OA
ATOM     15  C   UNL     1     -32.472   2.023  10.750  1.00  0.00    +0.139 C 
ENDBRANCH  12  13
ENDBRANCH   6  12
BRANCH   3  16
ATOM     16  S   UNL     1     -26.418  -1.479  10.697  1.00  0.00    -0.090 SA
BRANCH  16  17
ATOM     17  C   UNL     1     -24.736  -0.849  10.595  1.00  0.00    +0.018 A 
ATOM     18  C   UNL     1     -23.677  -1.562   9.966  1.00  0.00    -0.005 A 
ATOM     19  C   UNL     1     -24.501   0.406  11.176  1.00  0.00    +0.016 A 
ATOM     20  C   UNL     1     -23.825  -2.823   9.337  1.00  0.00    +0.010 A 
ATOM     21  C   UNL     1     -22.384  -0.978   9.963  1.00  0.00    -0.017 A 
ATOM     22  C   UNL     1     -23.228   0.967  11.157  1.00  0.00    +0.002 A 
ATOM     23  C   UNL     1     -22.746  -3.481   8.744  1.00  0.00    +0.001 A 
ATOM     24  C   UNL     1     -21.308  -1.653   9.362  1.00  0.00    +0.009 A 
ATOM     25  C   UNL     1     -22.178   0.277  10.556  1.00  0.00    +0.009 A 
ATOM     26  C   UNL     1     -21.486  -2.897   8.759  1.00  0.00    +0.001 A 
ENDBRANCH  16  17
ENDBRANCH   3  16
BRANCH   5  27
ATOM     27  O   UNL     1     -28.562   1.512  13.543  1.00  0.00    -0.454 OA
BRANCH  27  28
ATOM     28  C   UNL     1     -28.794   0.834  14.702  1.00  0.00    +0.303 C 
ATOM     29  O   UNL     1     -27.949   0.230  15.344  1.00  0.00    -0.253 OA
ATOM     30  C   UNL     1     -30.245   0.913  15.062  1.00  0.00    +0.139 C 
ENDBRANCH  27  28
ENDBRANCH   5  27
BRANCH   4  31
ATOM     31  O   UNL     1     -29.454  -0.936  10.937  1.00  0.00    -0.455 OA
BRANCH  31  32
ATOM     32  C   UNL     1     -30.487  -1.664  11.432  1.00  0.00    +0.303 C 
ATOM     33  O   UNL     1     -30.437  -2.369  12.428  1.00  0.00    -0.253 OA
ATOM     34  C   UNL     1     -31.704  -1.477  10.580  1.00  0.00    +0.139 C 
ENDBRANCH  31  32
ENDBRANCH   4  31
TORSDOF 11
ENDMDL
MODEL 4
REMARK VINA RESULT:    -8.062      4.507      8.011
REMARK INTER + INTRA:         -15.005
REMARK INTER:                 -13.301
REMARK INTRA:                  -1.704
REMARK UNBOUND:                -1.759
REMARK SMILES CC(=O)OC[C@@H]1O[C@H](Sc2cccc3ccccc23)[C@H](OC(C)=O)[C@@H](OC(C)=O)[C@@H]1OC(C)=O
REMARK SMILES IDX 6 1 7 2 8 3 20 4 25 5 30 6 5 7 4 8 2 9 3 10 1 11 31 12 32 13
REMARK SMILES IDX 34 14 33 15 9 16 10 17 19 18 11 19 18 20 14 21 12 22 17 23
REMARK SMILES IDX 15 24 13 25 16 26 26 27 27 28 29 29 28 30 21 31 22 32 24 33
REMARK SMILES IDX 23 34
REMARK H PARENT
ROOT
ATOM      1  C   UNL     1     -31.948   5.224   9.427  1.00  0.00    +0.202 C 
ATOM      2  O   UNL     1     -31.602   3.840   9.230  1.00  0.00    -0.352 OA
ATOM      3  C   UNL     1     -32.406   2.972  10.034  1.00  0.00    +0.226 C 
ATOM      4  C   UNL     1     -33.888   3.056   9.606  1.00  0.00    +0.260 C 
ATOM      5  C   UNL     1     -34.358   4.528   9.681  1.00  0.00    +0.264 C 
ATOM      6  C   UNL     1     -33.389   5.481   8.940  1.00  0.00    +0.253 C 
ENDROOT
BRANCH   1   7
ATOM      7  C   UNL     1     -30.898   6.082   8.710  1.00  0.00    +0.269 C 
BRANCH   7   8
ATOM      8  O   UNL     1     -31.436   7.373   8.346  1.00  0.00    -0.463 OA
BRANCH   8   9
ATOM      9  C   UNL     1     -30.906   7.940   7.231  1.00  0.00    +0.302 C 
ATOM     10  O   UNL     1     -31.535   8.256   6.230  1.00  0.00    -0.253 OA
ATOM     11  C   UNL     1     -29.433   8.145   7.405  1.00  0.00    +0.139 C 
ENDBRANCH   8   9
ENDBRANCH   7   8
ENDBRANCH   1   7
BRANCH   6  12
ATOM     12  O   UNL     1     -33.528   5.219   7.525  1.00  0.00    -0.455 OA
BRANCH  12  13
ATOM     13  C   UNL     1     -34.305   6.071   6.807  1.00  0.00    +0.303 C 
ATOM     14  O   UNL     1     -35.109   6.861   7.276  1.00  0.00    -0.253 OA
ATOM     15  C   UNL     1     -34.011   5.924   5.345  1.00  0.00    +0.139 C 
ENDBRANCH  12  13
ENDBRANCH   6  12
BRANCH   3  16
ATOM     16  S   UNL     1     -31.783   1.249   9.927  1.00  0.00    -0.090 SA
BRANCH  16  17
ATOM     17  C   UNL     1     -30.833   1.216  11.455  1.00  0.00    +0.018 A 
ATOM     18  C   UNL     1     -29.495   1.692  11.547  1.00  0.00    -0.005 A 
ATOM     19  C   UNL     1     -31.478   0.686  12.582  1.00  0.00    +0.016 A 
ATOM     20  C   UNL     1     -28.773   2.259  10.468  1.00  0.00    +0.010 A 
ATOM     21  C   UNL     1     -28.833   1.598  12.799  1.00  0.00    -0.017 A 
ATOM     22  C   UNL     1     -30.816   0.609  13.803  1.00  0.00    +0.002 A 
ATOM     23  C   UNL     1     -27.456   2.702  10.615  1.00  0.00    +0.001 A 
ATOM     24  C   UNL     1     -27.509   2.046  12.930  1.00  0.00    +0.009 A 
ATOM     25  C   UNL     1     -29.503   1.060  13.908  1.00  0.00    +0.009 A 
ATOM     26  C   UNL     1     -26.823   2.592  11.846  1.00  0.00    +0.001 A 
ENDBRANCH  16  17
ENDBRANCH   3  16
BRANCH   5  27
ATOM     27  O   UNL     1     -34.446   4.885  11.082  1.00  0.00    -0.454 OA
BRANCH  27  28
ATOM     28  C   UNL     1     -35.656   5.355  11.498  1.00  0.00    +0.303 C 
ATOM     29  O   UNL     1     -35.823   6.341  12.199  1.00  0.00    -0.253 OA
ATOM     30  C   UNL     1     -36.753   4.472  10.990  1.00  0.00    +0.139 C 
ENDBRANCH  27  28
ENDBRANCH   5  27
BRANCH   4  31
ATOM     31  O   UNL     1     -34.037   2.554   8.258  1.00  0.00    -0.455 OA
BRANCH  31  32
ATOM     32  C   UNL     1     -35.310   2.469   7.794  1.00  0.00    +0.303 C 
ATOM     33  O   UNL     1     -35.706   2.937   6.738  1.00  0.00    -0.253 OA
ATOM     34  C   UNL     1     -36.163   1.715   8.766  1.00  0.00    +0.139 C 
ENDBRANCH  31  32
ENDBRANCH   4  31
TORSDOF 11
ENDMDL
MODEL 5
REMARK VINA RESULT:    -7.972      4.478      7.952
REMARK INTER + INTRA:         -14.858
REMARK INTER:                 -13.131
REMARK INTRA:                  -1.727
REMARK UNBOUND:                -1.759
REMARK SMILES CC(=O)OC[C@@H]1O[C@H](Sc2cccc3ccccc23)[C@H](OC(C)=O)[C@@H](OC(C)=O)[C@@H]1OC(C)=O
REMARK SMILES IDX 6 1 7 2 8 3 20 4 25 5 30 6 5 7 4 8 2 9 3 10 1 11 31 12 32 13
REMARK SMILES IDX 34 14 33 15 9 16 10 17 19 18 11 19 18 20 14 21 12 22 17 23
REMARK SMILES IDX 15 24 13 25 16 26 26 27 27 28 29 29 28 30 21 31 22 32 24 33
REMARK SMILES IDX 23 34
REMARK H PARENT
ROOT
ATOM      1  C   UNL     1     -31.116   5.598   8.960  1.00  0.00    +0.202 C 
ATOM      2  O   UNL     1     -30.862   4.183   8.867  1.00  0.00    -0.352 OA
ATOM      3  C   UNL     1     -31.602   3.446   9.846  1.00  0.00    +0.226 C 
ATOM      4  C   UNL     1     -33.120   3.577   9.589  1.00  0.00    +0.260 C 
ATOM      5  C   UNL     1     -33.506   5.074   9.566  1.00  0.00    +0.264 C 
ATOM      6  C   UNL     1     -32.592   5.892   8.622  1.00  0.00    +0.253 C 
ENDROOT
BRANCH   1   7
ATOM      7  C   UNL     1     -30.121   6.317   8.039  1.00  0.00    +0.269 C 
BRANCH   7   8
ATOM      8  O   UNL     1     -28.897   6.635   8.738  1.00  0.00    -0.463 OA
BRANCH   8   9
ATOM      9  C   UNL     1     -27.983   7.351   8.031  1.00  0.00    +0.302 C 
ATOM     10  O   UNL     1     -26.792   7.084   7.938  1.00  0.00    -0.253 OA
ATOM     11  C   UNL     1     -28.645   8.513   7.358  1.00  0.00    +0.139 C 
ENDBRANCH   8   9
ENDBRANCH   7   8
ENDBRANCH   1   7
BRANCH   6  12
ATOM     12  O   UNL     1     -32.916   5.503   7.267  1.00  0.00    -0.455 OA
BRANCH  12  13
ATOM     13  C   UNL     1     -33.282   6.488   6.406  1.00  0.00    +0.303 C 
ATOM     14  O   UNL     1     -33.089   7.682   6.575  1.00  0.00    -0.253 OA
ATOM     15  C   UNL     1     -33.932   5.894   5.195  1.00  0.00    +0.139 C 
ENDBRANCH  12  13
ENDBRANCH   6  12
BRANCH   3  16
ATOM     16  S   UNL     1     -31.080   1.687   9.845  1.00  0.00    -0.090 SA
BRANCH  16  17
ATOM     17  C   UNL     1     -29.688   1.823  10.977  1.00  0.00    +0.018 A 
ATOM     18  C   UNL     1     -29.733   1.362  12.322  1.00  0.00    -0.005 A 
ATOM     19  C   UNL     1     -28.524   2.420  10.469  1.00  0.00    +0.016 A 
ATOM     20  C   UNL     1     -30.856   0.731  12.913  1.00  0.00    +0.010 A 
ATOM     21  C   UNL     1     -28.581   1.540  13.132  1.00  0.00    -0.017 A 
ATOM     22  C   UNL     1     -27.402   2.580  11.275  1.00  0.00    +0.002 A 
ATOM     23  C   UNL     1     -30.846   0.307  14.244  1.00  0.00    +0.001 A 
ATOM     24  C   UNL     1     -28.588   1.108  14.469  1.00  0.00    +0.009 A 
ATOM     25  C   UNL     1     -27.434   2.144  12.597  1.00  0.00    +0.009 A 
ATOM     26  C   UNL     1     -29.712   0.499  15.022  1.00  0.00    +0.001 A 
ENDBRANCH  16  17
ENDBRANCH   3  16
BRANCH   5  27
ATOM     27  O   UNL     1     -33.404   5.571  10.923  1.00  0.00    -0.454 OA
BRANCH  27  28
ATOM     28  C   UNL     1     -34.290   5.042  11.814  1.00  0.00    +0.303 C 
ATOM     29  O   UNL     1     -33.990   4.360  12.781  1.00  0.00    -0.253 OA
ATOM     30  C   UNL     1     -35.689   5.398  11.421  1.00  0.00    +0.139 C 
ENDBRANCH  27  28
ENDBRANCH   5  27
BRANCH   4  31
ATOM     31  O   UNL     1     -33.457   2.956   8.327  1.00  0.00    -0.455 OA
BRANCH  31  32
ATOM     32  C   UNL     1     -34.782   2.785   8.086  1.00  0.00    +0.303 C 
ATOM     33  O   UNL     1     -35.403   3.300   7.169  1.00  0.00    -0.253 OA
ATOM     34  C   UNL     1     -35.377   1.869   9.110  1.00  0.00    +0.139 C 
ENDBRANCH  31  32
ENDBRANCH   4  31
TORSDOF 11
ENDMDL
MODEL 6
REMARK VINA RESULT:    -7.630      5.479      8.723
REMARK INTER + INTRA:         -14.296
REMARK INTER:                 -13.383
REMARK INTRA:                  -0.913
REMARK UNBOUND:                -1.759
REMARK SMILES CC(=O)OC[C@@H]1O[C@H](Sc2cccc3ccccc23)[C@H](OC(C)=O)[C@@H](OC(C)=O)[C@@H]1OC(C)=O
REMARK SMILES IDX 6 1 7 2 8 3 20 4 25 5 30 6 5 7 4 8 2 9 3 10 1 11 31 12 32 13
REMARK SMILES IDX 34 14 33 15 9 16 10 17 19 18 11 19 18 20 14 21 12 22 17 23
REMARK SMILES IDX 15 24 13 25 16 26 26 27 27 28 29 29 28 30 21 31 22 32 24 33
REMARK SMILES IDX 23 34
REMARK H PARENT
ROOT
ATOM      1  C   UNL     1     -34.161   5.048  10.696  1.00  0.00    +0.202 C 
ATOM      2  O   UNL     1     -34.207   6.014   9.628  1.00  0.00    -0.352 OA
ATOM      3  C   UNL     1     -33.145   5.817   8.689  1.00  0.00    +0.226 C 
ATOM      4  C   UNL     1     -33.299   4.456   7.975  1.00  0.00    +0.260 C 
ATOM      5  C   UNL     1     -33.364   3.329   9.033  1.00  0.00    +0.264 C 
ATOM      6  C   UNL     1     -34.407   3.632  10.135  1.00  0.00    +0.253 C 
ENDROOT
BRANCH   1   7
ATOM      7  C   UNL     1     -35.182   5.471  11.760  1.00  0.00    +0.269 C 
BRANCH   7   8
ATOM      8  O   UNL     1     -36.527   5.123  11.363  1.00  0.00    -0.463 OA
BRANCH   8   9
ATOM      9  C   UNL     1     -37.314   6.159  10.972  1.00  0.00    +0.302 C 
ATOM     10  O   UNL     1     -37.085   7.343  11.186  1.00  0.00    -0.253 OA
ATOM     11  C   UNL     1     -38.503   5.651  10.219  1.00  0.00    +0.139 C 
ENDBRANCH   8   9
ENDBRANCH   7   8
ENDBRANCH   1   7
BRANCH   6  12
ATOM     12  O   UNL     1     -35.716   3.517   9.531  1.00  0.00    -0.455 OA
BRANCH  12  13
ATOM     13  C   UNL     1     -36.254   2.273   9.441  1.00  0.00    +0.303 C 
ATOM     14  O   UNL     1     -35.956   1.434   8.605  1.00  0.00    -0.253 OA
ATOM     15  C   UNL     1     -37.250   2.065  10.540  1.00  0.00    +0.139 C 
ENDBRANCH  12  13
ENDBRANCH   6  12
BRANCH   3  16
ATOM     16  S   UNL     1     -33.102   7.197   7.480  1.00  0.00    -0.090 SA
BRANCH  16  17
ATOM     17  C   UNL     1     -31.353   7.601   7.601  1.00  0.00    +0.018 A 
ATOM     18  C   UNL     1     -30.819   8.862   7.214  1.00  0.00    -0.005 A 
ATOM     19  C   UNL     1     -30.512   6.598   8.105  1.00  0.00    +0.016 A 
ATOM     20  C   UNL     1     -31.594   9.938   6.715  1.00  0.00    +0.010 A 
ATOM     21  C   UNL     1     -29.419   9.063   7.333  1.00  0.00    -0.017 A 
ATOM     22  C   UNL     1     -29.143   6.815   8.221  1.00  0.00    +0.002 A 
ATOM     23  C   UNL     1     -31.012  11.152   6.340  1.00  0.00    +0.001 A 
ATOM     24  C   UNL     1     -28.851  10.290   6.951  1.00  0.00    +0.009 A 
ATOM     25  C   UNL     1     -28.603   8.040   7.836  1.00  0.00    +0.009 A 
ATOM     26  C   UNL     1     -29.639  11.326   6.456  1.00  0.00    +0.001 A 
ENDBRANCH  16  17
ENDBRANCH   3  16
BRANCH   5  27
ATOM     27  O   UNL     1     -32.041   3.199   9.609  1.00  0.00    -0.454 OA
BRANCH  27  28
ATOM     28  C   UNL     1     -31.587   1.923   9.766  1.00  0.00    +0.303 C 
ATOM     29  O   UNL     1     -32.219   0.915   9.493  1.00  0.00    -0.253 OA
ATOM     30  C   UNL     1     -30.208   1.935  10.349  1.00  0.00    +0.139 C 
ENDBRANCH  27  28
ENDBRANCH   5  27
BRANCH   4  31
ATOM     31  O   UNL     1     -34.505   4.457   7.175  1.00  0.00    -0.455 OA
BRANCH  31  32
ATOM     32  C   UNL     1     -34.381   3.966   5.916  1.00  0.00    +0.303 C 
ATOM     33  O   UNL     1     -34.607   2.811   5.586  1.00  0.00    -0.253 OA
ATOM     34  C   UNL     1     -33.927   5.046   4.984  1.00  0.00    +0.139 C 
ENDBRANCH  31  32
ENDBRANCH   4  31
TORSDOF 11
ENDMDL
MODEL 7
REMARK VINA RESULT:    -7.167      2.523      6.101
REMARK INTER + INTRA:         -13.535
REMARK INTER:                 -12.653
REMARK INTRA:                  -0.882
REMARK UNBOUND:                -1.759
REMARK SMILES CC(=O)OC[C@@H]1O[C@H](Sc2cccc3ccccc23)[C@H](OC(C)=O)[C@@H](OC(C)=O)[C@@H]1OC(C)=O
REMARK SMILES IDX 6 1 7 2 8 3 20 4 25 5 30 6 5 7 4 8 2 9 3 10 1 11 31 12 32 13
REMARK SMILES IDX 34 14 33 15 9 16 10 17 19 18 11 19 18 20 14 21 12 22 17 23
REMARK SMILES IDX 15 24 13 25 16 26 26 27 27 28 29 29 28 30 21 31 22 32 24 33
REMARK SMILES IDX 23 34
REMARK H PARENT
ROOT
ATOM      1  C   UNL     1     -28.223   1.794  11.501  1.00  0.00    +0.202 C 
ATOM      2  O   UNL     1     -29.655   1.938  11.444  1.00  0.00    -0.352 OA
ATOM      3  C   UNL     1     -30.231   1.109  10.430  1.00  0.00    +0.226 C 
ATOM      4  C   UNL     1     -30.014  -0.384  10.762  1.00  0.00    +0.260 C 
ATOM      5  C   UNL     1     -28.502  -0.650  10.949  1.00  0.00    +0.264 C 
ATOM      6  C   UNL     1     -27.855   0.358  11.929  1.00  0.00    +0.253 C 
ENDROOT
BRANCH   1   7
ATOM      7  C   UNL     1     -27.677   2.873  12.445  1.00  0.00    +0.269 C 
BRANCH   7   8
ATOM      8  O   UNL     1     -26.246   3.016  12.303  1.00  0.00    -0.463 OA
BRANCH   8   9
ATOM      9  C   UNL     1     -25.824   3.644  11.174  1.00  0.00    +0.302 C 
ATOM     10  O   UNL     1     -26.494   4.417  10.501  1.00  0.00    -0.253 OA
ATOM     11  C   UNL     1     -24.406   3.269  10.873  1.00  0.00    +0.139 C 
ENDBRANCH   8   9
ENDBRANCH   7   8
ENDBRANCH   1   7
BRANCH   6  12
ATOM     12  O   UNL     1     -28.354   0.052  13.252  1.00  0.00    -0.455 OA
BRANCH  12  13
ATOM     13  C   UNL     1     -27.778  -0.988  13.909  1.00  0.00    +0.303 C 
ATOM     14  O   UNL     1     -27.355  -2.008  13.387  1.00  0.00    -0.253 OA
ATOM     15  C   UNL     1     -27.706  -0.689  15.375  1.00  0.00    +0.139 C 
ENDBRANCH  12  13
ENDBRANCH   6  12
BRANCH   3  16
ATOM     16  S   UNL     1     -32.016   1.491  10.235  1.00  0.00    -0.090 SA
BRANCH  16  17
ATOM     17  C   UNL     1     -31.859   3.143   9.540  1.00  0.00    +0.018 A 
ATOM     18  C   UNL     1     -32.975   3.907   9.096  1.00  0.00    -0.005 A 
ATOM     19  C   UNL     1     -30.560   3.663   9.448  1.00  0.00    +0.016 A 
ATOM     20  C   UNL     1     -34.321   3.471   9.168  1.00  0.00    +0.010 A 
ATOM     21  C   UNL     1     -32.732   5.192   8.545  1.00  0.00    -0.017 A 
ATOM     22  C   UNL     1     -30.341   4.928   8.912  1.00  0.00    +0.002 A 
ATOM     23  C   UNL     1     -35.376   4.262   8.707  1.00  0.00    +0.001 A 
ATOM     24  C   UNL     1     -33.804   5.974   8.085  1.00  0.00    +0.009 A 
ATOM     25  C   UNL     1     -31.421   5.683   8.462  1.00  0.00    +0.009 A 
ATOM     26  C   UNL     1     -35.116   5.513   8.162  1.00  0.00    +0.001 A 
ENDBRANCH  16  17
ENDBRANCH   3  16
BRANCH   5  27
ATOM     27  O   UNL     1     -27.880  -0.557   9.643  1.00  0.00    -0.454 OA
BRANCH  27  28
ATOM     28  C   UNL     1     -26.519  -0.624   9.631  1.00  0.00    +0.303 C 
ATOM     29  O   UNL     1     -25.776   0.265   9.246  1.00  0.00    -0.253 OA
ATOM     30  C   UNL     1     -26.065  -1.958  10.135  1.00  0.00    +0.139 C 
ENDBRANCH  27  28
ENDBRANCH   5  27
BRANCH   4  31
ATOM     31  O   UNL     1     -30.733  -0.725  11.971  1.00  0.00    -0.455 OA
BRANCH  31  32
ATOM     32  C   UNL     1     -31.131  -2.018  12.078  1.00  0.00    +0.303 C 
ATOM     33  O   UNL     1     -30.578  -2.871  12.756  1.00  0.00    -0.253 OA
ATOM     34  C   UNL     1     -32.352  -2.251  11.244  1.00  0.00    +0.139 C 
ENDBRANCH  31  32
ENDBRANCH   4  31
TORSDOF 11
ENDMDL
MODEL 8
REMARK VINA RESULT:    -7.164      6.318      8.887
REMARK INTER + INTRA:         -13.529
REMARK INTER:                 -12.633
REMARK INTRA:                  -0.896
REMARK UNBOUND:                -1.759
REMARK SMILES CC(=O)OC[C@@H]1O[C@H](Sc2cccc3ccccc23)[C@H](OC(C)=O)[C@@H](OC(C)=O)[C@@H]1OC(C)=O
REMARK SMILES IDX 6 1 7 2 8 3 20 4 25 5 30 6 5 7 4 8 2 9 3 10 1 11 31 12 32 13
REMARK SMILES IDX 34 14 33 15 9 16 10 17 19 18 11 19 18 20 14 21 12 22 17 23
REMARK SMILES IDX 15 24 13 25 16 26 26 27 27 28 29 29 28 30 21 31 22 32 24 33
REMARK SMILES IDX 23 34
REMARK H PARENT
ROOT
ATOM      1  C   UNL     1     -34.575   4.858   7.018  1.00  0.00    +0.202 C 
ATOM      2  O   UNL     1     -33.199   4.877   7.441  1.00  0.00    -0.352 OA
ATOM      3  C   UNL     1     -33.009   5.709   8.590  1.00  0.00    +0.226 C 
ATOM      4  C   UNL     1     -33.771   5.135   9.805  1.00  0.00    +0.260 C 
ATOM      5  C   UNL     1     -35.264   4.971   9.440  1.00  0.00    +0.264 C 
ATOM      6  C   UNL     1     -35.452   4.207   8.107  1.00  0.00    +0.253 C 
ENDROOT
BRANCH   1   7
ATOM      7  C   UNL     1     -34.644   4.137   5.665  1.00  0.00    +0.269 C 
BRANCH   7   8
ATOM      8  O   UNL     1     -33.813   4.791   4.680  1.00  0.00    -0.463 OA
BRANCH   8   9
ATOM      9  C   UNL     1     -33.888   6.148   4.654  1.00  0.00    +0.302 C 
ATOM     10  O   UNL     1     -34.920   6.799   4.557  1.00  0.00    -0.253 OA
ATOM     11  C   UNL     1     -32.520   6.744   4.777  1.00  0.00    +0.139 C 
ENDBRANCH   8   9
ENDBRANCH   7   8
ENDBRANCH   1   7
BRANCH   6  12
ATOM     12  O   UNL     1     -35.074   2.831   8.344  1.00  0.00    -0.455 OA
BRANCH  12  13
ATOM     13  C   UNL     1     -35.859   2.104   9.181  1.00  0.00    +0.303 C 
ATOM     14  O   UNL     1     -35.565   1.022   9.665  1.00  0.00    -0.253 OA
ATOM     15  C   UNL     1     -37.135   2.839   9.453  1.00  0.00    +0.139 C 
ENDBRANCH  12  13
ENDBRANCH   6  12
BRANCH   3  16
ATOM     16  S   UNL     1     -31.219   5.889   8.955  1.00  0.00    -0.090 SA
BRANCH  16  17
ATOM     17  C   UNL     1     -30.931   7.449   8.106  1.00  0.00    +0.018 A 
ATOM     18  C   UNL     1     -29.638   7.889   7.710  1.00  0.00    -0.005 A 
ATOM     19  C   UNL     1     -32.061   8.237   7.844  1.00  0.00    +0.016 A 
ATOM     20  C   UNL     1     -28.445   7.152   7.916  1.00  0.00    +0.010 A 
ATOM     21  C   UNL     1     -29.525   9.148   7.065  1.00  0.00    -0.017 A 
ATOM     22  C   UNL     1     -31.934   9.465   7.203  1.00  0.00    +0.002 A 
ATOM     23  C   UNL     1     -27.200   7.640   7.514  1.00  0.00    +0.001 A 
ATOM     24  C   UNL     1     -28.265   9.624   6.667  1.00  0.00    +0.009 A 
ATOM     25  C   UNL     1     -30.673   9.916   6.819  1.00  0.00    +0.009 A 
ATOM     26  C   UNL     1     -27.110   8.878   6.892  1.00  0.00    +0.001 A 
ENDBRANCH  16  17
ENDBRANCH   3  16
BRANCH   5  27
ATOM     27  O   UNL     1     -35.837   6.299   9.347  1.00  0.00    -0.454 OA
BRANCH  27  28
ATOM     28  C   UNL     1     -37.055   6.460   9.938  1.00  0.00    +0.303 C 
ATOM     29  O   UNL     1     -38.106   6.640   9.343  1.00  0.00    -0.253 OA
ATOM     30  C   UNL     1     -36.914   6.411  11.428  1.00  0.00    +0.139 C 
ENDBRANCH  27  28
ENDBRANCH   5  27
BRANCH   4  31
ATOM     31  O   UNL     1     -33.205   3.856  10.177  1.00  0.00    -0.455 OA
BRANCH  31  32
ATOM     32  C   UNL     1     -33.458   3.443  11.446  1.00  0.00    +0.303 C 
ATOM     33  O   UNL     1     -33.970   4.128  12.319  1.00  0.00    -0.253 OA
ATOM     34  C   UNL     1     -33.018   2.024  11.622  1.00  0.00    +0.139 C 
ENDBRANCH  31  32
ENDBRANCH   4  31
TORSDOF 11
ENDMDL
MODEL 9
REMARK VINA RESULT:    -6.997      2.797      5.693
REMARK INTER + INTRA:         -13.255
REMARK INTER:                 -12.090
REMARK INTRA:                  -1.166
REMARK UNBOUND:                -1.759
REMARK SMILES CC(=O)OC[C@@H]1O[C@H](Sc2cccc3ccccc23)[C@H](OC(C)=O)[C@@H](OC(C)=O)[C@@H]1OC(C)=O
REMARK SMILES IDX 6 1 7 2 8 3 20 4 25 5 30 6 5 7 4 8 2 9 3 10 1 11 31 12 32 13
REMARK SMILES IDX 34 14 33 15 9 16 10 17 19 18 11 19 18 20 14 21 12 22 17 23
REMARK SMILES IDX 15 24 13 25 16 26 26 27 27 28 29 29 28 30 21 31 22 32 24 33
REMARK SMILES IDX 23 34
REMARK H PARENT
ROOT
ATOM      1  C   UNL     1     -27.145   2.383  11.655  1.00  0.00    +0.202 C 
ATOM      2  O   UNL     1     -28.299   3.080  11.149  1.00  0.00    -0.352 OA
ATOM      3  C   UNL     1     -29.051   2.271  10.239  1.00  0.00    +0.226 C 
ATOM      4  C   UNL     1     -29.640   1.042  10.966  1.00  0.00    +0.260 C 
ATOM      5  C   UNL     1     -28.495   0.254  11.644  1.00  0.00    +0.264 C 
ATOM      6  C   UNL     1     -27.590   1.172  12.500  1.00  0.00    +0.253 C 
ENDROOT
BRANCH   1   7
ATOM      7  C   UNL     1     -26.286   3.390  12.431  1.00  0.00    +0.269 C 
BRANCH   7   8
ATOM      8  O   UNL     1     -24.879   3.191  12.168  1.00  0.00    -0.463 OA
BRANCH   8   9
ATOM      9  C   UNL     1     -24.475   3.450  10.896  1.00  0.00    +0.302 C 
ATOM     10  O   UNL     1     -24.602   4.520  10.317  1.00  0.00    -0.253 OA
ATOM     11  C   UNL     1     -23.829   2.237  10.302  1.00  0.00    +0.139 C 
ENDBRANCH   8   9
ENDBRANCH   7   8
ENDBRANCH   1   7
BRANCH   6  12
ATOM     12  O   UNL     1     -28.362   1.582  13.653  1.00  0.00    -0.455 OA
BRANCH  12  13
ATOM     13  C   UNL     1     -28.466   0.698  14.679  1.00  0.00    +0.303 C 
ATOM     14  O   UNL     1     -27.575  -0.039  15.071  1.00  0.00    -0.253 OA
ATOM     15  C   UNL     1     -29.831   0.780  15.289  1.00  0.00    +0.139 C 
ENDBRANCH  12  13
ENDBRANCH   6  12
BRANCH   3  16
ATOM     16  S   UNL     1     -30.373   3.268   9.447  1.00  0.00    -0.090 SA
BRANCH  16  17
ATOM     17  C   UNL     1     -29.363   4.644   8.879  1.00  0.00    +0.018 A 
ATOM     18  C   UNL     1     -29.913   5.881   8.439  1.00  0.00    -0.005 A 
ATOM     19  C   UNL     1     -27.974   4.446   8.884  1.00  0.00    +0.016 A 
ATOM     20  C   UNL     1     -31.299   6.176   8.417  1.00  0.00    +0.010 A 
ATOM     21  C   UNL     1     -29.022   6.891   7.992  1.00  0.00    -0.017 A 
ATOM     22  C   UNL     1     -27.115   5.450   8.450  1.00  0.00    +0.002 A 
ATOM     23  C   UNL     1     -31.782   7.406   7.965  1.00  0.00    +0.001 A 
ATOM     24  C   UNL     1     -29.525   8.122   7.539  1.00  0.00    +0.009 A 
ATOM     25  C   UNL     1     -27.638   6.662   8.005  1.00  0.00    +0.009 A 
ATOM     26  C   UNL     1     -30.894   8.378   7.523  1.00  0.00    +0.001 A 
ENDBRANCH  16  17
ENDBRANCH   3  16
BRANCH   5  27
ATOM     27  O   UNL     1     -27.724  -0.380  10.594  1.00  0.00    -0.454 OA
BRANCH  27  28
ATOM     28  C   UNL     1     -26.745  -1.232  11.012  1.00  0.00    +0.303 C 
ATOM     29  O   UNL     1     -25.563  -1.141  10.720  1.00  0.00    -0.253 OA
ATOM     30  C   UNL     1     -27.334  -2.315  11.862  1.00  0.00    +0.139 C 
ENDBRANCH  27  28
ENDBRANCH   5  27
BRANCH   4  31
ATOM     31  O   UNL     1     -30.601   1.475  11.957  1.00  0.00    -0.455 OA
BRANCH  31  32
ATOM     32  C   UNL     1     -31.739   0.739  12.040  1.00  0.00    +0.303 C 
ATOM     33  O   UNL     1     -31.782  -0.475  12.168  1.00  0.00    -0.253 OA
ATOM     34  C   UNL     1     -32.937   1.631  11.954  1.00  0.00    +0.139 C 
ENDBRANCH  31  32
ENDBRANCH   4  31
TORSDOF 11
ENDMDL
