REMARK SMILES Clc1ncnc2c1cnn2-c1ccccc1
REMARK SMILES IDX 1 1 2 2 7 3 8 4 9 5 10 6 6 7 5 8 4 9 3 10 11 11 12 12 16 13
REMARK SMILES IDX 13 14 15 15 14 16
REMARK H PARENT
ROOT
ATOM      1 Cl   UNL     1      -5.149   0.170  -1.086  1.00  0.00    -0.061 Cl
ATOM      2  C   UNL     1      -3.764   0.208  -0.108  1.00  0.00    +0.143 A 
ATOM      3  C   UNL     1      -2.523   0.063  -0.697  1.00  0.00    +0.077 A 
ATOM      4  C   UNL     1      -1.973  -0.125  -1.969  1.00  0.00    +0.149 A 
ATOM      5  N   UNL     1      -0.643  -0.201  -1.951  1.00  0.00    -0.174 NA
ATOM      6  N   UNL     1      -0.300  -0.059  -0.630  1.00  0.00    -0.215 N 
ATOM      7  C   UNL     1      -1.437   0.104   0.164  1.00  0.00    +0.167 A 
ATOM      8  N   UNL     1      -1.522   0.273   1.503  1.00  0.00    -0.216 NA
ATOM      9  C   UNL     1      -2.787   0.401   1.938  1.00  0.00    +0.226 A 
ATOM     10  N   UNL     1      -3.914   0.378   1.211  1.00  0.00    -0.224 NA
ENDROOT
BRANCH   6  11
ATOM     11  C   UNL     1       1.077  -0.094  -0.252  1.00  0.00    +0.067 A 
ATOM     12  C   UNL     1       1.485   0.045   1.081  1.00  0.00    +0.028 A 
ATOM     13  C   UNL     1       2.056  -0.273  -1.246  1.00  0.00    +0.028 A 
ATOM     14  C   UNL     1       2.845   0.005   1.410  1.00  0.00    +0.002 A 
ATOM     15  C   UNL     1       3.412  -0.312  -0.910  1.00  0.00    +0.002 A 
ATOM     16  C   UNL     1       3.805  -0.172   0.417  1.00  0.00    +0.000 A 
ENDBRANCH   6  11
TORSDOF 1
