REMARK SMILES O=[N+]([O-])c1ccc(C=Nc2ccc(O)cc2)cc1
REMARK SMILES IDX 9 1 8 2 10 3 13 4 12 5 15 6 11 7 16 8 14 9 7 11 6 12 17 13
REMARK SMILES IDX 5 14 18 15 4 16 2 17 1 18 3 19
REMARK H PARENT 14 10
ROOT
ATOM      1  N   UNL     1       0.697  -0.106   0.693  1.00  0.00    -0.256 NA
ATOM      2  C   UNL     1      -0.093  -0.002  -0.328  1.00  0.00    +0.119 C 
ENDROOT
BRANCH   1   3
ATOM      3  C   UNL     1       2.068  -0.127   0.405  1.00  0.00    +0.063 A 
ATOM      4  C   UNL     1       4.804  -0.159  -0.133  1.00  0.00    +0.115 A 
ATOM      5  C   UNL     1       4.074  -1.339  -0.212  1.00  0.00    +0.048 A 
ATOM      6  C   UNL     1       4.190   1.038   0.221  1.00  0.00    +0.048 A 
ATOM      7  C   UNL     1       2.706  -1.323   0.064  1.00  0.00    +0.032 A 
ATOM      8  C   UNL     1       2.820   1.049   0.494  1.00  0.00    +0.032 A 
BRANCH   4   9
ATOM      9  O   UNL     1       6.138  -0.218  -0.409  1.00  0.00    -0.508 OA
ATOM     10  H   UNL     1       6.521   0.665  -0.280  1.00  0.00    +0.293 HD
ENDBRANCH   4   9
ENDBRANCH   1   3
BRANCH   2  11
ATOM     11  C   UNL     1      -1.561   0.030  -0.174  1.00  0.00    -0.007 A 
ATOM     12  C   UNL     1      -2.357   0.148  -1.318  1.00  0.00    +0.017 A 
ATOM     13  C   UNL     1      -2.148  -0.056   1.094  1.00  0.00    +0.017 A 
ATOM     14  C   UNL     1      -3.750   0.180  -1.195  1.00  0.00    +0.086 A 
ATOM     15  C   UNL     1      -3.540  -0.025   1.224  1.00  0.00    +0.086 A 
ATOM     16  C   UNL     1      -4.337   0.094   0.076  1.00  0.00    +0.269 A 
BRANCH  16  17
ATOM     17  N   UNL     1      -5.800   0.128   0.206  1.00  0.00    +0.062 N 
ATOM     18  O   UNL     1      -6.467   0.233  -0.833  1.00  0.00    -0.258 OA
ATOM     19  O   UNL     1      -6.279   0.051   1.346  1.00  0.00    -0.258 OA
ENDBRANCH  16  17
ENDBRANCH   2  11
TORSDOF 4
