REMARK SMILES O=C(O)c1ccccc1N[C@H](c1ccccc1)c1ccc2cccnc2c1O
REMARK SMILES IDX 10 1 9 3 4 4 5 5 8 6 6 7 7 8 2 9 1 10 3 11 11 13 12 14 13 15
REMARK SMILES IDX 17 16 14 17 16 18 15 19 18 20 27 21 19 22 26 23 20 24 25 25
REMARK SMILES IDX 21 26 24 27 22 28 23 29 28 30
REMARK H PARENT 10 2 3 12 28 31
ROOT
ATOM      1  N   UNL     1      -1.432  -0.445   1.072  1.00  0.00    -0.373 N 
ATOM      2  H   UNL     1      -1.999  -0.182   1.885  1.00  0.00    +0.161 HD
ENDROOT
BRANCH   1   3
ATOM      3  C   UNL     1      -2.285  -0.753   0.001  1.00  0.00    +0.049 A 
ATOM      4  C   UNL     1      -3.654  -1.056   0.214  1.00  0.00    +0.083 A 
ATOM      5  C   UNL     1      -4.476  -1.459  -0.857  1.00  0.00    +0.018 A 
ATOM      6  C   UNL     1      -1.796  -0.914  -1.306  1.00  0.00    +0.026 A 
ATOM      7  C   UNL     1      -3.962  -1.576  -2.144  1.00  0.00    +0.001 A 
ATOM      8  C   UNL     1      -2.620  -1.305  -2.367  1.00  0.00    +0.002 A 
BRANCH   4   9
ATOM      9  C   UNL     1      -4.336  -0.969   1.536  1.00  0.00    +0.337 C 
ATOM     10  O   UNL     1      -5.426  -1.444   1.806  1.00  0.00    -0.246 OA
BRANCH   9  11
ATOM     11  O   UNL     1      -3.664  -0.254   2.462  1.00  0.00    -0.478 OA
ATOM     12  H   UNL     1      -4.265  -0.290   3.238  1.00  0.00    +0.297 HD
ENDBRANCH   9  11
ENDBRANCH   4   9
ENDBRANCH   1   3
BRANCH   1  13
ATOM     13  C   UNL     1      -0.251   0.447   0.999  1.00  0.00    +0.144 C 
BRANCH  13  14
ATOM     14  C   UNL     1      -0.464   1.642   0.066  1.00  0.00    -0.021 A 
ATOM     15  C   UNL     1      -1.474   2.576   0.372  1.00  0.00    +0.006 A 
ATOM     16  C   UNL     1       0.300   1.856  -1.094  1.00  0.00    +0.006 A 
ATOM     17  C   UNL     1      -1.711   3.678  -0.451  1.00  0.00    +0.000 A 
ATOM     18  C   UNL     1       0.063   2.961  -1.917  1.00  0.00    +0.000 A 
ATOM     19  C   UNL     1      -0.942   3.870  -1.596  1.00  0.00    +0.000 A 
ENDBRANCH  13  14
BRANCH  13  20
ATOM     20  C   UNL     1       1.063  -0.327   0.894  1.00  0.00    +0.023 A 
ATOM     21  C   UNL     1       2.278   0.291   1.239  1.00  0.00    +0.147 A 
ATOM     22  C   UNL     1       1.129  -1.669   0.493  1.00  0.00    +0.011 A 
ATOM     23  C   UNL     1       3.518  -0.346   1.164  1.00  0.00    +0.112 A 
ATOM     24  C   UNL     1       2.352  -2.341   0.408  1.00  0.00    +0.011 A 
ATOM     25  N   UNL     1       4.633   0.338   1.503  1.00  0.00    -0.252 NA
ATOM     26  C   UNL     1       3.549  -1.685   0.736  1.00  0.00    +0.004 A 
ATOM     27  C   UNL     1       5.816  -0.312   1.418  1.00  0.00    +0.112 A 
ATOM     28  C   UNL     1       4.795  -2.322   0.663  1.00  0.00    +0.012 A 
ATOM     29  C   UNL     1       5.947  -1.626   1.008  1.00  0.00    +0.021 A 
BRANCH  21  30
ATOM     30  O   UNL     1       2.267   1.596   1.687  1.00  0.00    -0.505 OA
ATOM     31  H   UNL     1       3.215   1.804   1.843  1.00  0.00    +0.293 HD
ENDBRANCH  21  30
ENDBRANCH  13  20
ENDBRANCH   1  13
TORSDOF 7
