REMARK SMILES Cc1ccc(C(=O)c2ccccc2)c(C)c1
REMARK SMILES IDX 1 1 2 2 16 3 14 4 5 5 4 6 3 7 15 8 6 9 7 10 8 11 9 12 13 13
REMARK SMILES IDX 10 14 12 15 11 16
REMARK H PARENT
ROOT
ATOM      1  C   UNL     1      -4.474   0.395  -0.995  1.00  0.00    +0.044 C 
ATOM      2  C   UNL     1      -3.085   0.028  -0.559  1.00  0.00    -0.051 A 
ATOM      3  C   UNL     1      -2.397  -1.015  -1.196  1.00  0.00    +0.007 A 
ATOM      4  C   UNL     1      -1.085  -1.354  -0.826  1.00  0.00    -0.040 A 
ATOM      5  C   UNL     1      -0.467  -0.622   0.203  1.00  0.00    +0.025 A 
ATOM      6  C   UNL     1      -1.149   0.422   0.843  1.00  0.00    +0.013 A 
ATOM      7  C   UNL     1      -2.447   0.751   0.454  1.00  0.00    +0.004 A 
ATOM      8  C   UNL     1      -0.394  -2.499  -1.513  1.00  0.00    +0.045 C 
ENDROOT
BRANCH   5   9
ATOM      9  C   UNL     1       0.906  -0.950   0.654  1.00  0.00    +0.193 C 
ATOM     10  O   UNL     1       1.145  -2.085   1.055  1.00  0.00    -0.289 OA
BRANCH   9  11
ATOM     11  C   UNL     1       1.980   0.081   0.633  1.00  0.00    +0.022 A 
ATOM     12  C   UNL     1       1.910   1.211  -0.191  1.00  0.00    +0.012 A 
ATOM     13  C   UNL     1       3.103  -0.112   1.448  1.00  0.00    +0.012 A 
ATOM     14  C   UNL     1       2.946   2.149  -0.181  1.00  0.00    +0.001 A 
ATOM     15  C   UNL     1       4.136   0.827   1.455  1.00  0.00    +0.001 A 
ATOM     16  C   UNL     1       4.055   1.958   0.643  1.00  0.00    +0.000 A 
ENDBRANCH   9  11
ENDBRANCH   5   9
TORSDOF 2
