REMARK SMILES C1=Cc2ccccc2C1=Cc1ccccc1
REMARK SMILES IDX 10 1 9 2 1 3 2 4 3 5 8 6 7 7 6 8 5 9 4 10 11 11 14 12 13 13
REMARK SMILES IDX 15 14 12 15 16 16
REMARK H PARENT
ROOT
ATOM      1  C   UNL     1       0.756   1.031  -1.338  1.00  0.00    +0.016 C 
ATOM      2  C   UNL     1      -0.554   0.746  -1.271  1.00  0.00    -0.017 C 
ATOM      3  C   UNL     1      -1.512   1.228  -2.259  1.00  0.00    +0.009 C 
ATOM      4  C   UNL     1      -2.746   0.798  -1.953  1.00  0.00    +0.009 C 
ATOM      5  C   UNL     1      -2.650   0.002  -0.733  1.00  0.00    -0.018 A 
ATOM      6  C   UNL     1      -1.313  -0.047  -0.291  1.00  0.00    -0.011 A 
ATOM      7  C   UNL     1      -0.977  -0.749   0.854  1.00  0.00    +0.009 A 
ATOM      8  C   UNL     1      -1.994  -1.404   1.557  1.00  0.00    +0.001 A 
ATOM      9  C   UNL     1      -3.325  -1.352   1.113  1.00  0.00    +0.001 A 
ATOM     10  C   UNL     1      -3.663  -0.644  -0.043  1.00  0.00    +0.009 A 
ENDROOT
BRANCH   1  11
ATOM     11  C   UNL     1       1.786   0.593  -0.398  1.00  0.00    -0.025 A 
ATOM     12  C   UNL     1       3.755  -0.245   1.403  1.00  0.00    +0.000 A 
ATOM     13  C   UNL     1       3.447  -1.030   0.291  1.00  0.00    +0.001 A 
ATOM     14  C   UNL     1       3.082   0.957   1.616  1.00  0.00    +0.001 A 
ATOM     15  C   UNL     1       2.465  -0.612  -0.608  1.00  0.00    +0.008 A 
ATOM     16  C   UNL     1       2.100   1.377   0.718  1.00  0.00    +0.008 A 
ENDBRANCH   1  11
TORSDOF 1
