MODEL 1
REMARK VINA RESULT:    -7.637      0.000      0.000
REMARK INTER + INTRA:          -7.860
REMARK INTER:                  -7.860
REMARK INTRA:                   0.000
REMARK UNBOUND:                 0.000
REMARK SMILES O=C1c2ccccc2C(=O)N1O
REMARK SMILES IDX 12 1 11 3 2 4 9 5 1 6 3 7 8 8 10 9 4 10 7 11 5 12 6 13
REMARK H PARENT 12 2
ROOT
ATOM      1  O   UNL     1     -24.771   9.234   5.980  1.00  0.00    -0.278 OA
ATOM      2  H   UNL     1     -24.231   9.937   5.569  1.00  0.00    +0.247 HD
ENDROOT
BRANCH   1   3
ATOM      3  N   UNL     1     -25.986   9.878   6.188  1.00  0.00    -0.148 N 
ATOM      4  C   UNL     1     -26.985   9.348   6.940  1.00  0.00    +0.285 C 
ATOM      5  C   UNL     1     -26.369  10.945   5.439  1.00  0.00    +0.285 C 
ATOM      6  O   UNL     1     -27.035   8.334   7.612  1.00  0.00    -0.266 OA
ATOM      7  C   UNL     1     -28.121  10.258   6.758  1.00  0.00    +0.055 A 
ATOM      8  C   UNL     1     -27.745  11.232   5.843  1.00  0.00    +0.055 A 
ATOM      9  O   UNL     1     -25.748  11.527   4.570  1.00  0.00    -0.266 OA
ATOM     10  C   UNL     1     -29.382  10.234   7.319  1.00  0.00    +0.015 A 
ATOM     11  C   UNL     1     -28.607  12.231   5.440  1.00  0.00    +0.015 A 
ATOM     12  C   UNL     1     -30.272  11.241   6.931  1.00  0.00    +0.001 A 
ATOM     13  C   UNL     1     -29.888  12.230   6.001  1.00  0.00    +0.001 A 
ENDBRANCH   1   3
TORSDOF 1
ENDMDL
MODEL 2
REMARK VINA RESULT:    -7.610      0.210      2.533
REMARK INTER + INTRA:          -7.832
REMARK INTER:                  -7.832
REMARK INTRA:                   0.000
REMARK UNBOUND:                 0.000
REMARK SMILES O=C1c2ccccc2C(=O)N1O
REMARK SMILES IDX 12 1 11 3 2 4 9 5 1 6 3 7 8 8 10 9 4 10 7 11 5 12 6 13
REMARK H PARENT 12 2
ROOT
ATOM      1  O   UNL     1     -24.647   9.145   6.190  1.00  0.00    -0.278 OA
ATOM      2  H   UNL     1     -24.837   8.190   6.109  1.00  0.00    +0.247 HD
ENDROOT
BRANCH   1   3
ATOM      3  N   UNL     1     -25.920   9.703   6.144  1.00  0.00    -0.148 N 
ATOM      4  C   UNL     1     -26.186  10.889   5.536  1.00  0.00    +0.285 C 
ATOM      5  C   UNL     1     -26.931   9.250   6.932  1.00  0.00    +0.285 C 
ATOM      6  O   UNL     1     -25.480  11.634   4.884  1.00  0.00    -0.266 OA
ATOM      7  C   UNL     1     -27.586  11.178   5.865  1.00  0.00    +0.055 A 
ATOM      8  C   UNL     1     -28.040  10.178   6.715  1.00  0.00    +0.055 A 
ATOM      9  O   UNL     1     -26.930   8.312   7.706  1.00  0.00    -0.266 OA
ATOM     10  C   UNL     1     -28.395  12.228   5.479  1.00  0.00    +0.015 A 
ATOM     11  C   UNL     1     -29.323  10.176   7.224  1.00  0.00    +0.015 A 
ATOM     12  C   UNL     1     -29.701  12.244   5.977  1.00  0.00    +0.001 A 
ATOM     13  C   UNL     1     -30.161  11.227   6.841  1.00  0.00    +0.001 A 
ENDBRANCH   1   3
TORSDOF 1
ENDMDL
MODEL 3
REMARK VINA RESULT:    -6.779      2.566      4.046
REMARK INTER + INTRA:          -6.977
REMARK INTER:                  -6.977
REMARK INTRA:                   0.000
REMARK UNBOUND:                 0.000
REMARK SMILES O=C1c2ccccc2C(=O)N1O
REMARK SMILES IDX 12 1 11 3 2 4 9 5 1 6 3 7 8 8 10 9 4 10 7 11 5 12 6 13
REMARK H PARENT 12 2
ROOT
ATOM      1  O   UNL     1     -31.289   9.174   7.556  1.00  0.00    -0.278 OA
ATOM      2  H   UNL     1     -31.561   9.649   8.366  1.00  0.00    +0.247 HD
ENDROOT
BRANCH   1   3
ATOM      3  N   UNL     1     -30.221   9.946   7.108  1.00  0.00    -0.148 N 
ATOM      4  C   UNL     1     -30.380  11.172   6.545  1.00  0.00    +0.285 C 
ATOM      5  C   UNL     1     -28.977   9.423   6.946  1.00  0.00    +0.285 C 
ATOM      6  O   UNL     1     -31.370  11.861   6.386  1.00  0.00    -0.266 OA
ATOM      7  C   UNL     1     -29.043  11.548   6.073  1.00  0.00    +0.055 A 
ATOM      8  C   UNL     1     -28.188  10.482   6.317  1.00  0.00    +0.055 A 
ATOM      9  O   UNL     1     -28.584   8.301   7.202  1.00  0.00    -0.266 OA
ATOM     10  C   UNL     1     -28.606  12.707   5.462  1.00  0.00    +0.015 A 
ATOM     11  C   UNL     1     -26.854  10.516   5.965  1.00  0.00    +0.015 A 
ATOM     12  C   UNL     1     -27.256  12.768   5.102  1.00  0.00    +0.001 A 
ATOM     13  C   UNL     1     -26.388  11.683   5.352  1.00  0.00    +0.001 A 
ENDBRANCH   1   3
TORSDOF 1
ENDMDL
MODEL 4
REMARK VINA RESULT:    -6.737      1.621      3.117
REMARK INTER + INTRA:          -6.934
REMARK INTER:                  -6.934
REMARK INTRA:                   0.000
REMARK UNBOUND:                 0.000
REMARK SMILES O=C1c2ccccc2C(=O)N1O
REMARK SMILES IDX 12 1 11 3 2 4 9 5 1 6 3 7 8 8 10 9 4 10 7 11 5 12 6 13
REMARK H PARENT 12 2
ROOT
ATOM      1  O   UNL     1     -25.810   6.686   7.919  1.00  0.00    -0.278 OA
ATOM      2  H   UNL     1     -25.528   7.046   8.782  1.00  0.00    +0.247 HD
ENDROOT
BRANCH   1   3
ATOM      3  N   UNL     1     -26.296   7.818   7.272  1.00  0.00    -0.148 N 
ATOM      4  C   UNL     1     -25.489   8.721   6.655  1.00  0.00    +0.285 C 
ATOM      5  C   UNL     1     -27.573   8.249   7.444  1.00  0.00    +0.285 C 
ATOM      6  O   UNL     1     -24.288   8.725   6.462  1.00  0.00    -0.266 OA
ATOM      7  C   UNL     1     -26.380   9.818   6.262  1.00  0.00    +0.055 A 
ATOM      8  C   UNL     1     -27.650   9.530   6.743  1.00  0.00    +0.055 A 
ATOM      9  O   UNL     1     -28.471   7.735   8.084  1.00  0.00    -0.266 OA
ATOM     10  C   UNL     1     -26.110  10.980   5.567  1.00  0.00    +0.015 A 
ATOM     11  C   UNL     1     -28.717  10.386   6.555  1.00  0.00    +0.015 A 
ATOM     12  C   UNL     1     -27.177  11.860   5.357  1.00  0.00    +0.001 A 
ATOM     13  C   UNL     1     -28.468  11.566   5.846  1.00  0.00    +0.001 A 
ENDBRANCH   1   3
TORSDOF 1
ENDMDL
MODEL 5
REMARK VINA RESULT:    -6.592      3.732      5.208
REMARK INTER + INTRA:          -6.784
REMARK INTER:                  -6.784
REMARK INTRA:                   0.000
REMARK UNBOUND:                 0.000
REMARK SMILES O=C1c2ccccc2C(=O)N1O
REMARK SMILES IDX 12 1 11 3 2 4 9 5 1 6 3 7 8 8 10 9 4 10 7 11 5 12 6 13
REMARK H PARENT 12 2
ROOT
ATOM      1  O   UNL     1     -33.300   9.586   7.934  1.00  0.00    -0.278 OA
ATOM      2  H   UNL     1     -33.563  10.492   7.679  1.00  0.00    +0.247 HD
ENDROOT
BRANCH   1   3
ATOM      3  N   UNL     1     -31.925   9.607   7.721  1.00  0.00    -0.148 N 
ATOM      4  C   UNL     1     -31.252  10.724   7.340  1.00  0.00    +0.285 C 
ATOM      5  C   UNL     1     -31.200   8.463   7.610  1.00  0.00    +0.285 C 
ATOM      6  O   UNL     1     -31.623  11.873   7.186  1.00  0.00    -0.266 OA
ATOM      7  C   UNL     1     -29.884  10.269   7.071  1.00  0.00    +0.055 A 
ATOM      8  C   UNL     1     -29.852   8.891   7.237  1.00  0.00    +0.055 A 
ATOM      9  O   UNL     1     -31.571   7.311   7.732  1.00  0.00    -0.266 OA
ATOM     10  C   UNL     1     -28.765  10.984   6.694  1.00  0.00    +0.015 A 
ATOM     11  C   UNL     1     -28.702   8.155   7.033  1.00  0.00    +0.015 A 
ATOM     12  C   UNL     1     -27.585  10.260   6.489  1.00  0.00    +0.001 A 
ATOM     13  C   UNL     1     -27.555   8.859   6.657  1.00  0.00    +0.001 A 
ENDBRANCH   1   3
TORSDOF 1
ENDMDL
MODEL 6
REMARK VINA RESULT:    -6.566      3.487      4.463
REMARK INTER + INTRA:          -6.758
REMARK INTER:                  -6.758
REMARK INTRA:                   0.000
REMARK UNBOUND:                 0.000
REMARK SMILES O=C1c2ccccc2C(=O)N1O
REMARK SMILES IDX 12 1 11 3 2 4 9 5 1 6 3 7 8 8 10 9 4 10 7 11 5 12 6 13
REMARK H PARENT 12 2
ROOT
ATOM      1  O   UNL     1     -32.965   9.598   8.054  1.00  0.00    -0.278 OA
ATOM      2  H   UNL     1     -33.564   9.499   7.288  1.00  0.00    +0.247 HD
ENDROOT
BRANCH   1   3
ATOM      3  N   UNL     1     -31.723   9.729   7.441  1.00  0.00    -0.148 N 
ATOM      4  C   UNL     1     -30.846   8.699   7.317  1.00  0.00    +0.285 C 
ATOM      5  C   UNL     1     -31.182  10.947   7.171  1.00  0.00    +0.285 C 
ATOM      6  O   UNL     1     -30.946   7.520   7.601  1.00  0.00    -0.266 OA
ATOM      7  C   UNL     1     -29.624   9.304   6.776  1.00  0.00    +0.055 A 
ATOM      8  C   UNL     1     -29.829  10.674   6.687  1.00  0.00    +0.055 A 
ATOM      9  O   UNL     1     -31.668  12.049   7.338  1.00  0.00    -0.266 OA
ATOM     10  C   UNL     1     -28.426   8.722   6.412  1.00  0.00    +0.015 A 
ATOM     11  C   UNL     1     -28.850  11.534   6.231  1.00  0.00    +0.015 A 
ATOM     12  C   UNL     1     -27.421   9.572   5.940  1.00  0.00    +0.001 A 
ATOM     13  C   UNL     1     -27.632  10.965   5.850  1.00  0.00    +0.001 A 
ENDBRANCH   1   3
TORSDOF 1
ENDMDL
MODEL 7
REMARK VINA RESULT:    -6.328      2.528      3.542
REMARK INTER + INTRA:          -6.513
REMARK INTER:                  -6.513
REMARK INTRA:                   0.000
REMARK UNBOUND:                 0.000
REMARK SMILES O=C1c2ccccc2C(=O)N1O
REMARK SMILES IDX 12 1 11 3 2 4 9 5 1 6 3 7 8 8 10 9 4 10 7 11 5 12 6 13
REMARK H PARENT 12 2
ROOT
ATOM      1  O   UNL     1     -27.039   5.336   8.572  1.00  0.00    -0.278 OA
ATOM      2  H   UNL     1     -27.933   5.198   8.942  1.00  0.00    +0.247 HD
ENDROOT
BRANCH   1   3
ATOM      3  N   UNL     1     -27.128   6.625   8.057  1.00  0.00    -0.148 N 
ATOM      4  C   UNL     1     -28.282   7.344   8.057  1.00  0.00    +0.285 C 
ATOM      5  C   UNL     1     -26.151   7.154   7.274  1.00  0.00    +0.285 C 
ATOM      6  O   UNL     1     -29.378   7.103   8.526  1.00  0.00    -0.266 OA
ATOM      7  C   UNL     1     -27.975   8.553   7.285  1.00  0.00    +0.055 A 
ATOM      8  C   UNL     1     -26.676   8.437   6.808  1.00  0.00    +0.055 A 
ATOM      9  O   UNL     1     -25.081   6.668   6.960  1.00  0.00    -0.266 OA
ATOM     10  C   UNL     1     -28.761   9.651   6.999  1.00  0.00    +0.015 A 
ATOM     11  C   UNL     1     -26.094   9.411   6.022  1.00  0.00    +0.015 A 
ATOM     12  C   UNL     1     -28.190  10.655   6.209  1.00  0.00    +0.001 A 
ATOM     13  C   UNL     1     -26.870  10.536   5.726  1.00  0.00    +0.001 A 
ENDBRANCH   1   3
TORSDOF 1
ENDMDL
MODEL 8
REMARK VINA RESULT:    -6.269      3.668      4.962
REMARK INTER + INTRA:          -6.452
REMARK INTER:                  -6.452
REMARK INTRA:                   0.000
REMARK UNBOUND:                 0.000
REMARK SMILES O=C1c2ccccc2C(=O)N1O
REMARK SMILES IDX 12 1 11 3 2 4 9 5 1 6 3 7 8 8 10 9 4 10 7 11 5 12 6 13
REMARK H PARENT 12 2
ROOT
ATOM      1  O   UNL     1     -27.754   4.531   8.989  1.00  0.00    -0.278 OA
ATOM      2  H   UNL     1     -27.918   4.928   9.866  1.00  0.00    +0.247 HD
ENDROOT
BRANCH   1   3
ATOM      3  N   UNL     1     -27.277   5.615   8.259  1.00  0.00    -0.148 N 
ATOM      4  C   UNL     1     -25.980   5.734   7.871  1.00  0.00    +0.285 C 
ATOM      5  C   UNL     1     -27.999   6.758   8.119  1.00  0.00    +0.285 C 
ATOM      6  O   UNL     1     -25.037   4.973   7.978  1.00  0.00    -0.266 OA
ATOM      7  C   UNL     1     -25.880   7.076   7.288  1.00  0.00    +0.055 A 
ATOM      8  C   UNL     1     -27.111   7.700   7.438  1.00  0.00    +0.055 A 
ATOM      9  O   UNL     1     -29.125   7.001   8.512  1.00  0.00    -0.266 OA
ATOM     10  C   UNL     1     -24.808   7.713   6.696  1.00  0.00    +0.015 A 
ATOM     11  C   UNL     1     -27.336   8.992   7.007  1.00  0.00    +0.015 A 
ATOM     12  C   UNL     1     -25.013   9.021   6.245  1.00  0.00    +0.001 A 
ATOM     13  C   UNL     1     -26.265   9.654   6.398  1.00  0.00    +0.001 A 
ENDBRANCH   1   3
TORSDOF 1
ENDMDL
MODEL 9
REMARK VINA RESULT:    -5.953     10.423     11.918
REMARK INTER + INTRA:          -6.127
REMARK INTER:                  -6.127
REMARK INTRA:                   0.000
REMARK UNBOUND:                 0.000
REMARK SMILES O=C1c2ccccc2C(=O)N1O
REMARK SMILES IDX 12 1 11 3 2 4 9 5 1 6 3 7 8 8 10 9 4 10 7 11 5 12 6 13
REMARK H PARENT 12 2
ROOT
ATOM      1  O   UNL     1     -35.273   6.741   8.326  1.00  0.00    -0.278 OA
ATOM      2  H   UNL     1     -34.364   6.413   8.182  1.00  0.00    +0.247 HD
ENDROOT
BRANCH   1   3
ATOM      3  N   UNL     1     -35.856   5.694   9.033  1.00  0.00    -0.148 N 
ATOM      4  C   UNL     1     -35.233   4.505   9.242  1.00  0.00    +0.285 C 
ATOM      5  C   UNL     1     -37.183   5.679   9.327  1.00  0.00    +0.285 C 
ATOM      6  O   UNL     1     -34.110   4.127   8.969  1.00  0.00    -0.266 OA
ATOM      7  C   UNL     1     -36.248   3.651   9.869  1.00  0.00    +0.055 A 
ATOM      8  C   UNL     1     -37.436   4.367   9.921  1.00  0.00    +0.055 A 
ATOM      9  O   UNL     1     -38.022   6.532   9.105  1.00  0.00    -0.266 OA
ATOM     10  C   UNL     1     -36.158   2.355  10.336  1.00  0.00    +0.015 A 
ATOM     11  C   UNL     1     -38.595   3.827  10.441  1.00  0.00    +0.015 A 
ATOM     12  C   UNL     1     -37.318   1.789  10.874  1.00  0.00    +0.001 A 
ATOM     13  C   UNL     1     -38.525   2.518  10.926  1.00  0.00    +0.001 A 
ENDBRANCH   1   3
TORSDOF 1
ENDMDL
