MODEL 1
REMARK VINA RESULT:    -8.096      0.000      0.000
REMARK INTER + INTRA:         -10.796
REMARK INTER:                  -9.989
REMARK INTRA:                  -0.807
REMARK UNBOUND:                -0.807
REMARK SMILES CCc1cccc(CC)c1Nc1nc(C)nc2c1cnn2C
REMARK SMILES IDX 3 1 10 2 7 3 6 4 5 5 4 6 2 7 1 8 11 9 12 11 18 12 13 13
REMARK SMILES IDX 19 14 17 15 14 16 20 17 21 18 16 19 15 20 22 21 8 22 9 23
REMARK H PARENT 11 10
ROOT
ATOM      1  C   UNL     1     -32.755   4.633   9.208  1.00  0.00    -0.024 A 
ATOM      2  C   UNL     1     -33.718   4.879   8.200  1.00  0.00    +0.046 A 
ATOM      3  C   UNL     1     -33.508   5.937   7.283  1.00  0.00    -0.024 A 
ATOM      4  C   UNL     1     -32.386   6.770   7.442  1.00  0.00    +0.006 A 
ATOM      5  C   UNL     1     -31.474   6.559   8.472  1.00  0.00    +0.001 A 
ATOM      6  C   UNL     1     -31.653   5.492   9.345  1.00  0.00    +0.006 A 
ENDROOT
BRANCH   1   7
ATOM      7  C   UNL     1     -32.887   3.478  10.178  1.00  0.00    +0.034 C 
ATOM      8  C   UNL     1     -31.903   2.357   9.881  1.00  0.00    +0.009 C 
ENDBRANCH   1   7
BRANCH   2   9
ATOM      9  N   UNL     1     -34.803   3.983   8.077  1.00  0.00    -0.339 N 
ATOM     10  H   UNL     1     -35.059   3.815   7.109  1.00  0.00    +0.168 HD
BRANCH   9  11
ATOM     11  C   UNL     1     -35.980   3.971   8.839  1.00  0.00    +0.145 A 
ATOM     12  C   UNL     1     -36.464   2.884   9.574  1.00  0.00    +0.082 A 
ATOM     13  N   UNL     1     -36.709   5.116   8.848  1.00  0.00    -0.215 NA
ATOM     14  C   UNL     1     -36.094   1.554   9.863  1.00  0.00    +0.149 A 
ATOM     15  C   UNL     1     -37.650   3.065  10.261  1.00  0.00    +0.163 A 
ATOM     16  C   UNL     1     -37.863   5.169   9.552  1.00  0.00    +0.130 A 
ATOM     17  N   UNL     1     -36.964   0.931  10.667  1.00  0.00    -0.179 NA
ATOM     18  N   UNL     1     -37.903   1.879  10.893  1.00  0.00    -0.250 N 
ATOM     19  N   UNL     1     -38.394   4.183  10.298  1.00  0.00    -0.214 NA
ATOM     20  C   UNL     1     -38.600   6.474   9.535  1.00  0.00    +0.090 C 
ATOM     21  C   UNL     1     -39.031   1.569  11.735  1.00  0.00    +0.176 C 
ENDBRANCH   9  11
ENDBRANCH   2   9
BRANCH   3  22
ATOM     22  C   UNL     1     -34.404   6.196   6.089  1.00  0.00    +0.034 C 
ATOM     23  C   UNL     1     -33.622   6.693   4.881  1.00  0.00    +0.009 C 
ENDBRANCH   3  22
TORSDOF 4
ENDMDL
MODEL 2
REMARK VINA RESULT:    -8.066      0.556      2.813
REMARK INTER + INTRA:         -10.759
REMARK INTER:                 -10.002
REMARK INTRA:                  -0.758
REMARK UNBOUND:                -0.807
REMARK SMILES CCc1cccc(CC)c1Nc1nc(C)nc2c1cnn2C
REMARK SMILES IDX 3 1 10 2 7 3 6 4 5 5 4 6 2 7 1 8 11 9 12 11 18 12 13 13
REMARK SMILES IDX 19 14 17 15 14 16 20 17 21 18 16 19 15 20 22 21 8 22 9 23
REMARK H PARENT 11 10
ROOT
ATOM      1  C   UNL     1     -33.545   5.813   7.240  1.00  0.00    -0.024 A 
ATOM      2  C   UNL     1     -33.831   4.858   8.245  1.00  0.00    +0.046 A 
ATOM      3  C   UNL     1     -33.039   4.826   9.418  1.00  0.00    -0.024 A 
ATOM      4  C   UNL     1     -31.935   5.692   9.524  1.00  0.00    +0.006 A 
ATOM      5  C   UNL     1     -31.624   6.588   8.506  1.00  0.00    +0.001 A 
ATOM      6  C   UNL     1     -32.428   6.654   7.374  1.00  0.00    +0.006 A 
ENDROOT
BRANCH   1   7
ATOM      7  C   UNL     1     -34.393   5.943   5.992  1.00  0.00    +0.034 C 
ATOM      8  C   UNL     1     -33.649   6.625   4.855  1.00  0.00    +0.009 C 
ENDBRANCH   1   7
BRANCH   2   9
ATOM      9  N   UNL     1     -34.973   4.043   8.088  1.00  0.00    -0.339 N 
ATOM     10  H   UNL     1     -35.254   3.954   7.116  1.00  0.00    +0.168 HD
BRANCH   9  11
ATOM     11  C   UNL     1     -36.137   4.059   8.870  1.00  0.00    +0.145 A 
ATOM     12  C   UNL     1     -36.620   2.991   9.632  1.00  0.00    +0.082 A 
ATOM     13  N   UNL     1     -36.853   5.212   8.870  1.00  0.00    -0.215 NA
ATOM     14  C   UNL     1     -36.261   1.662   9.940  1.00  0.00    +0.149 A 
ATOM     15  C   UNL     1     -37.792   3.199  10.337  1.00  0.00    +0.163 A 
ATOM     16  C   UNL     1     -37.994   5.291   9.592  1.00  0.00    +0.130 A 
ATOM     17  N   UNL     1     -37.124   1.064  10.770  1.00  0.00    -0.179 NA
ATOM     18  N   UNL     1     -38.048   2.027  10.994  1.00  0.00    -0.250 N 
ATOM     19  N   UNL     1     -38.523   4.325  10.366  1.00  0.00    -0.214 NA
ATOM     20  C   UNL     1     -38.716   6.605   9.565  1.00  0.00    +0.090 C 
ATOM     21  C   UNL     1     -39.165   1.745  11.861  1.00  0.00    +0.176 C 
ENDBRANCH   9  11
ENDBRANCH   2   9
BRANCH   3  22
ATOM     22  C   UNL     1     -33.345   3.940  10.608  1.00  0.00    +0.034 C 
ATOM     23  C   UNL     1     -34.026   4.704  11.734  1.00  0.00    +0.009 C 
ENDBRANCH   3  22
TORSDOF 4
ENDMDL
MODEL 3
REMARK VINA RESULT:    -8.048      7.200     10.549
REMARK INTER + INTRA:         -10.737
REMARK INTER:                  -9.850
REMARK INTRA:                  -0.887
REMARK UNBOUND:                -0.807
REMARK SMILES CCc1cccc(CC)c1Nc1nc(C)nc2c1cnn2C
REMARK SMILES IDX 3 1 10 2 7 3 6 4 5 5 4 6 2 7 1 8 11 9 12 11 18 12 13 13
REMARK SMILES IDX 19 14 17 15 14 16 20 17 21 18 16 19 15 20 22 21 8 22 9 23
REMARK H PARENT 11 10
ROOT
ATOM      1  C   UNL     1     -30.387   0.618  11.558  1.00  0.00    -0.024 A 
ATOM      2  C   UNL     1     -29.120   0.440  12.164  1.00  0.00    +0.046 A 
ATOM      3  C   UNL     1     -29.015   0.468  13.575  1.00  0.00    -0.024 A 
ATOM      4  C   UNL     1     -30.160   0.752  14.343  1.00  0.00    +0.006 A 
ATOM      5  C   UNL     1     -31.391   0.984  13.738  1.00  0.00    +0.001 A 
ATOM      6  C   UNL     1     -31.506   0.911  12.355  1.00  0.00    +0.006 A 
ENDROOT
BRANCH   1   7
ATOM      7  C   UNL     1     -30.578   0.534  10.059  1.00  0.00    +0.034 C 
ATOM      8  C   UNL     1     -30.990  -0.858   9.605  1.00  0.00    +0.009 C 
ENDBRANCH   1   7
BRANCH   2   9
ATOM      9  N   UNL     1     -28.021   0.126  11.335  1.00  0.00    -0.339 N 
ATOM     10  H   UNL     1     -27.653  -0.804  11.515  1.00  0.00    +0.168 HD
BRANCH   9  11
ATOM     11  C   UNL     1     -26.939   0.958  11.014  1.00  0.00    +0.145 A 
ATOM     12  C   UNL     1     -27.031   2.224  10.428  1.00  0.00    +0.082 A 
ATOM     13  N   UNL     1     -25.700   0.478  11.293  1.00  0.00    -0.215 NA
ATOM     14  C   UNL     1     -28.032   3.109   9.971  1.00  0.00    +0.149 A 
ATOM     15  C   UNL     1     -25.847   2.894  10.183  1.00  0.00    +0.163 A 
ATOM     16  C   UNL     1     -24.611   1.225  10.996  1.00  0.00    +0.130 A 
ATOM     17  N   UNL     1     -27.537   4.250   9.477  1.00  0.00    -0.179 NA
ATOM     18  N   UNL     1     -26.200   4.089   9.619  1.00  0.00    -0.250 N 
ATOM     19  N   UNL     1     -24.606   2.455  10.450  1.00  0.00    -0.214 NA
ATOM     20  C   UNL     1     -23.279   0.641  11.357  1.00  0.00    +0.090 C 
ATOM     21  C   UNL     1     -25.313   5.139   9.184  1.00  0.00    +0.176 C 
ENDBRANCH   9  11
ENDBRANCH   2   9
BRANCH   3  22
ATOM     22  C   UNL     1     -27.736   0.152  14.323  1.00  0.00    +0.034 C 
ATOM     23  C   UNL     1     -28.006  -0.437  15.700  1.00  0.00    +0.009 C 
ENDBRANCH   3  22
TORSDOF 4
ENDMDL
MODEL 4
REMARK VINA RESULT:    -7.937      8.256     11.108
REMARK INTER + INTRA:         -10.600
REMARK INTER:                  -9.883
REMARK INTRA:                  -0.718
REMARK UNBOUND:                -0.807
REMARK SMILES CCc1cccc(CC)c1Nc1nc(C)nc2c1cnn2C
REMARK SMILES IDX 3 1 10 2 7 3 6 4 5 5 4 6 2 7 1 8 11 9 12 11 18 12 13 13
REMARK SMILES IDX 19 14 17 15 14 16 20 17 21 18 16 19 15 20 22 21 8 22 9 23
REMARK H PARENT 11 10
ROOT
ATOM      1  C   UNL     1     -28.872   0.455  13.193  1.00  0.00    -0.024 A 
ATOM      2  C   UNL     1     -27.797   0.062  12.359  1.00  0.00    +0.046 A 
ATOM      3  C   UNL     1     -28.052  -0.770  11.243  1.00  0.00    -0.024 A 
ATOM      4  C   UNL     1     -29.356  -1.252  11.031  1.00  0.00    +0.006 A 
ATOM      5  C   UNL     1     -30.397  -0.909  11.888  1.00  0.00    +0.001 A 
ATOM      6  C   UNL     1     -30.159  -0.055  12.958  1.00  0.00    +0.006 A 
ENDROOT
BRANCH   1   7
ATOM      7  C   UNL     1     -28.677   1.396  14.363  1.00  0.00    +0.034 C 
ATOM      8  C   UNL     1     -29.506   0.993  15.573  1.00  0.00    +0.009 C 
ENDBRANCH   1   7
BRANCH   2   9
ATOM      9  N   UNL     1     -26.520   0.611  12.612  1.00  0.00    -0.339 N 
ATOM     10  H   UNL     1     -26.457   1.038  13.531  1.00  0.00    +0.168 HD
BRANCH   9  11
ATOM     11  C   UNL     1     -25.739   1.373  11.731  1.00  0.00    +0.145 A 
ATOM     12  C   UNL     1     -26.187   2.465  10.982  1.00  0.00    +0.082 A 
ATOM     13  N   UNL     1     -24.440   1.002  11.597  1.00  0.00    -0.215 NA
ATOM     14  C   UNL     1     -27.378   3.193  10.781  1.00  0.00    +0.149 A 
ATOM     15  C   UNL     1     -25.264   3.090  10.163  1.00  0.00    +0.163 A 
ATOM     16  C   UNL     1     -23.633   1.687  10.754  1.00  0.00    +0.130 A 
ATOM     17  N   UNL     1     -27.237   4.201   9.911  1.00  0.00    -0.179 NA
ATOM     18  N   UNL     1     -25.935   4.111   9.550  1.00  0.00    -0.250 N 
ATOM     19  N   UNL     1     -23.972   2.756  10.009  1.00  0.00    -0.214 NA
ATOM     20  C   UNL     1     -22.205   1.237  10.677  1.00  0.00    +0.090 C 
ATOM     21  C   UNL     1     -25.400   5.053   8.599  1.00  0.00    +0.176 C 
ENDBRANCH   9  11
ENDBRANCH   2   9
BRANCH   3  22
ATOM     22  C   UNL     1     -26.999  -1.133  10.216  1.00  0.00    +0.034 C 
ATOM     23  C   UNL     1     -26.169  -2.335  10.644  1.00  0.00    +0.009 C 
ENDBRANCH   3  22
TORSDOF 4
ENDMDL
MODEL 5
REMARK VINA RESULT:    -7.866      7.543      9.393
REMARK INTER + INTRA:         -10.512
REMARK INTER:                  -9.703
REMARK INTRA:                  -0.810
REMARK UNBOUND:                -0.807
REMARK SMILES CCc1cccc(CC)c1Nc1nc(C)nc2c1cnn2C
REMARK SMILES IDX 3 1 10 2 7 3 6 4 5 5 4 6 2 7 1 8 11 9 12 11 18 12 13 13
REMARK SMILES IDX 19 14 17 15 14 16 20 17 21 18 16 19 15 20 22 21 8 22 9 23
REMARK H PARENT 11 10
ROOT
ATOM      1  C   UNL     1     -24.914   0.152  10.105  1.00  0.00    -0.024 A 
ATOM      2  C   UNL     1     -25.562   1.395  10.303  1.00  0.00    +0.046 A 
ATOM      3  C   UNL     1     -24.813   2.503  10.765  1.00  0.00    -0.024 A 
ATOM      4  C   UNL     1     -23.457   2.324  11.094  1.00  0.00    +0.006 A 
ATOM      5  C   UNL     1     -22.840   1.085  10.953  1.00  0.00    +0.001 A 
ATOM      6  C   UNL     1     -23.562   0.007  10.455  1.00  0.00    +0.006 A 
ENDROOT
BRANCH   1   7
ATOM      7  C   UNL     1     -25.643  -1.054   9.551  1.00  0.00    +0.034 C 
ATOM      8  C   UNL     1     -24.849  -2.340   9.723  1.00  0.00    +0.009 C 
ENDBRANCH   1   7
BRANCH   2   9
ATOM      9  N   UNL     1     -26.917   1.510   9.921  1.00  0.00    -0.339 N 
ATOM     10  H   UNL     1     -27.137   2.430   9.548  1.00  0.00    +0.168 HD
BRANCH   9  11
ATOM     11  C   UNL     1     -28.038   1.058  10.632  1.00  0.00    +0.145 A 
ATOM     12  C   UNL     1     -28.298   1.302  11.984  1.00  0.00    +0.082 A 
ATOM     13  N   UNL     1     -28.935   0.311   9.939  1.00  0.00    -0.215 NA
ATOM     14  C   UNL     1     -27.704   1.980  13.070  1.00  0.00    +0.149 A 
ATOM     15  C   UNL     1     -29.459   0.767  12.509  1.00  0.00    +0.163 A 
ATOM     16  C   UNL     1     -30.032  -0.169  10.568  1.00  0.00    +0.130 A 
ATOM     17  N   UNL     1     -28.420   1.891  14.197  1.00  0.00    -0.179 NA
ATOM     18  N   UNL     1     -29.485   1.143  13.824  1.00  0.00    -0.250 N 
ATOM     19  N   UNL     1     -30.371   0.029  11.856  1.00  0.00    -0.214 NA
ATOM     20  C   UNL     1     -30.991  -0.963   9.732  1.00  0.00    +0.090 C 
ATOM     21  C   UNL     1     -30.501   0.826  14.797  1.00  0.00    +0.176 C 
ENDBRANCH   9  11
ENDBRANCH   2   9
BRANCH   3  22
ATOM     22  C   UNL     1     -25.378   3.904  10.878  1.00  0.00    +0.034 C 
ATOM     23  C   UNL     1     -25.089   4.742   9.641  1.00  0.00    +0.009 C 
ENDBRANCH   3  22
TORSDOF 4
ENDMDL
MODEL 6
REMARK VINA RESULT:    -7.834      7.249     10.277
REMARK INTER + INTRA:         -10.473
REMARK INTER:                  -9.796
REMARK INTRA:                  -0.677
REMARK UNBOUND:                -0.807
REMARK SMILES CCc1cccc(CC)c1Nc1nc(C)nc2c1cnn2C
REMARK SMILES IDX 3 1 10 2 7 3 6 4 5 5 4 6 2 7 1 8 11 9 12 11 18 12 13 13
REMARK SMILES IDX 19 14 17 15 14 16 20 17 21 18 16 19 15 20 22 21 8 22 9 23
REMARK H PARENT 11 10
ROOT
ATOM      1  C   UNL     1     -29.006   0.355  13.579  1.00  0.00    -0.024 A 
ATOM      2  C   UNL     1     -29.157   0.184  12.181  1.00  0.00    +0.046 A 
ATOM      3  C   UNL     1     -30.398   0.492  11.574  1.00  0.00    -0.024 A 
ATOM      4  C   UNL     1     -31.479   0.885  12.385  1.00  0.00    +0.006 A 
ATOM      5  C   UNL     1     -31.340   0.995  13.764  1.00  0.00    +0.001 A 
ATOM      6  C   UNL     1     -30.109   0.738  14.357  1.00  0.00    +0.006 A 
ENDROOT
BRANCH   1   7
ATOM      7  C   UNL     1     -27.687   0.106  14.279  1.00  0.00    +0.034 C 
ATOM      8  C   UNL     1     -27.871  -0.486  15.667  1.00  0.00    +0.009 C 
ENDBRANCH   1   7
BRANCH   2   9
ATOM      9  N   UNL     1     -28.021  -0.182  11.426  1.00  0.00    -0.339 N 
ATOM     10  H   UNL     1     -27.635  -1.076  11.716  1.00  0.00    +0.168 HD
BRANCH   9  11
ATOM     11  C   UNL     1     -26.952   0.644  11.051  1.00  0.00    +0.145 A 
ATOM     12  C   UNL     1     -27.066   1.935  10.527  1.00  0.00    +0.082 A 
ATOM     13  N   UNL     1     -25.705   0.132  11.208  1.00  0.00    -0.215 NA
ATOM     14  C   UNL     1     -28.082   2.855  10.191  1.00  0.00    +0.149 A 
ATOM     15  C   UNL     1     -25.892   2.595  10.213  1.00  0.00    +0.163 A 
ATOM     16  C   UNL     1     -24.629   0.871  10.853  1.00  0.00    +0.130 A 
ATOM     17  N   UNL     1     -27.605   4.008   9.705  1.00  0.00    -0.179 NA
ATOM     18  N   UNL     1     -26.266   3.819   9.729  1.00  0.00    -0.250 N 
ATOM     19  N   UNL     1     -24.643   2.124  10.359  1.00  0.00    -0.214 NA
ATOM     20  C   UNL     1     -23.284   0.250  11.079  1.00  0.00    +0.090 C 
ATOM     21  C   UNL     1     -25.395   4.870   9.267  1.00  0.00    +0.176 C 
ENDBRANCH   9  11
ENDBRANCH   2   9
BRANCH   3  22
ATOM     22  C   UNL     1     -30.621   0.475  10.076  1.00  0.00    +0.034 C 
ATOM     23  C   UNL     1     -31.000  -0.908   9.567  1.00  0.00    +0.009 C 
ENDBRANCH   3  22
TORSDOF 4
ENDMDL
MODEL 7
REMARK VINA RESULT:    -7.698      2.927      5.181
REMARK INTER + INTRA:         -10.306
REMARK INTER:                  -9.585
REMARK INTRA:                  -0.720
REMARK UNBOUND:                -0.807
REMARK SMILES CCc1cccc(CC)c1Nc1nc(C)nc2c1cnn2C
REMARK SMILES IDX 3 1 10 2 7 3 6 4 5 5 4 6 2 7 1 8 11 9 12 11 18 12 13 13
REMARK SMILES IDX 19 14 17 15 14 16 20 17 21 18 16 19 15 20 22 21 8 22 9 23
REMARK H PARENT 11 10
ROOT
ATOM      1  C   UNL     1     -33.746   5.873   6.604  1.00  0.00    -0.024 A 
ATOM      2  C   UNL     1     -32.639   6.238   7.407  1.00  0.00    +0.046 A 
ATOM      3  C   UNL     1     -31.708   7.185   6.918  1.00  0.00    -0.024 A 
ATOM      4  C   UNL     1     -31.860   7.684   5.611  1.00  0.00    +0.006 A 
ATOM      5  C   UNL     1     -32.918   7.276   4.805  1.00  0.00    +0.001 A 
ATOM      6  C   UNL     1     -33.860   6.381   5.300  1.00  0.00    +0.006 A 
ENDROOT
BRANCH   1   7
ATOM      7  C   UNL     1     -34.812   4.916   7.095  1.00  0.00    +0.034 C 
ATOM      8  C   UNL     1     -34.798   3.596   6.339  1.00  0.00    +0.009 C 
ENDBRANCH   1   7
BRANCH   2   9
ATOM      9  N   UNL     1     -32.567   5.724   8.721  1.00  0.00    -0.339 N 
ATOM     10  H   UNL     1     -32.341   6.441   9.405  1.00  0.00    +0.168 HD
BRANCH   9  11
ATOM     11  C   UNL     1     -31.952   4.533   9.130  1.00  0.00    +0.145 A 
ATOM     12  C   UNL     1     -32.617   3.372   9.539  1.00  0.00    +0.082 A 
ATOM     13  N   UNL     1     -30.595   4.521   9.135  1.00  0.00    -0.215 NA
ATOM     14  C   UNL     1     -33.941   2.912   9.703  1.00  0.00    +0.149 A 
ATOM     15  C   UNL     1     -31.834   2.295   9.911  1.00  0.00    +0.163 A 
ATOM     16  C   UNL     1     -29.938   3.407   9.532  1.00  0.00    +0.130 A 
ATOM     17  N   UNL     1     -34.007   1.649  10.141  1.00  0.00    -0.179 NA
ATOM     18  N   UNL     1     -32.705   1.299  10.260  1.00  0.00    -0.250 N 
ATOM     19  N   UNL     1     -30.492   2.244   9.924  1.00  0.00    -0.214 NA
ATOM     20  C   UNL     1     -28.440   3.459   9.486  1.00  0.00    +0.090 C 
ATOM     21  C   UNL     1     -32.369  -0.024  10.721  1.00  0.00    +0.176 C 
ENDBRANCH   9  11
ENDBRANCH   2   9
BRANCH   3  22
ATOM     22  C   UNL     1     -30.571   7.744   7.748  1.00  0.00    +0.034 C 
ATOM     23  C   UNL     1     -29.792   8.820   7.006  1.00  0.00    +0.009 C 
ENDBRANCH   3  22
TORSDOF 4
ENDMDL
MODEL 8
REMARK VINA RESULT:    -7.628      7.418     10.281
REMARK INTER + INTRA:         -10.219
REMARK INTER:                  -9.591
REMARK INTRA:                  -0.628
REMARK UNBOUND:                -0.807
REMARK SMILES CCc1cccc(CC)c1Nc1nc(C)nc2c1cnn2C
REMARK SMILES IDX 3 1 10 2 7 3 6 4 5 5 4 6 2 7 1 8 11 9 12 11 18 12 13 13
REMARK SMILES IDX 19 14 17 15 14 16 20 17 21 18 16 19 15 20 22 21 8 22 9 23
REMARK H PARENT 11 10
ROOT
ATOM      1  C   UNL     1     -29.964  -1.073  14.210  1.00  0.00    -0.024 A 
ATOM      2  C   UNL     1     -30.211  -0.448  12.963  1.00  0.00    +0.046 A 
ATOM      3  C   UNL     1     -31.138  -1.030  12.066  1.00  0.00    -0.024 A 
ATOM      4  C   UNL     1     -31.735  -2.259  12.400  1.00  0.00    +0.006 A 
ATOM      5  C   UNL     1     -31.444  -2.898  13.601  1.00  0.00    +0.001 A 
ATOM      6  C   UNL     1     -30.569  -2.305  14.504  1.00  0.00    +0.006 A 
ENDROOT
BRANCH   1   7
ATOM      7  C   UNL     1     -29.034  -0.467  15.240  1.00  0.00    +0.034 C 
ATOM      8  C   UNL     1     -29.627   0.769  15.899  1.00  0.00    +0.009 C 
ENDBRANCH   1   7
BRANCH   2   9
ATOM      9  N   UNL     1     -29.602   0.801  12.709  1.00  0.00    -0.339 N 
ATOM     10  H   UNL     1     -30.203   1.423  12.177  1.00  0.00    +0.168 HD
BRANCH   9  11
ATOM     11  C   UNL     1     -28.280   1.030  12.300  1.00  0.00    +0.145 A 
ATOM     12  C   UNL     1     -27.435   0.085  11.710  1.00  0.00    +0.082 A 
ATOM     13  N   UNL     1     -27.787   2.277  12.511  1.00  0.00    -0.215 NA
ATOM     14  C   UNL     1     -27.476  -1.268  11.309  1.00  0.00    +0.149 A 
ATOM     15  C   UNL     1     -26.159   0.500  11.378  1.00  0.00    +0.163 A 
ATOM     16  C   UNL     1     -26.514   2.561  12.152  1.00  0.00    +0.130 A 
ATOM     17  N   UNL     1     -26.327  -1.688  10.766  1.00  0.00    -0.179 NA
ATOM     18  N   UNL     1     -25.542  -0.587  10.822  1.00  0.00    -0.250 N 
ATOM     19  N   UNL     1     -25.638   1.724  11.565  1.00  0.00    -0.214 NA
ATOM     20  C   UNL     1     -26.048   3.966  12.391  1.00  0.00    +0.090 C 
ATOM     21  C   UNL     1     -24.193  -0.655  10.318  1.00  0.00    +0.176 C 
ENDBRANCH   9  11
ENDBRANCH   2   9
BRANCH   3  22
ATOM     22  C   UNL     1     -31.574  -0.372  10.773  1.00  0.00    +0.034 C 
ATOM     23  C   UNL     1     -30.768  -0.861   9.579  1.00  0.00    +0.009 C 
ENDBRANCH   3  22
TORSDOF 4
ENDMDL
MODEL 9
REMARK VINA RESULT:    -7.617      7.104     10.836
REMARK INTER + INTRA:         -10.206
REMARK INTER:                  -9.406
REMARK INTRA:                  -0.800
REMARK UNBOUND:                -0.807
REMARK SMILES CCc1cccc(CC)c1Nc1nc(C)nc2c1cnn2C
REMARK SMILES IDX 3 1 10 2 7 3 6 4 5 5 4 6 2 7 1 8 11 9 12 11 18 12 13 13
REMARK SMILES IDX 19 14 17 15 14 16 20 17 21 18 16 19 15 20 22 21 8 22 9 23
REMARK H PARENT 11 10
ROOT
ATOM      1  C   UNL     1     -29.727  -0.893  13.761  1.00  0.00    -0.024 A 
ATOM      2  C   UNL     1     -29.685  -0.585  12.380  1.00  0.00    +0.046 A 
ATOM      3  C   UNL     1     -30.549  -1.264  11.489  1.00  0.00    -0.024 A 
ATOM      4  C   UNL     1     -31.377  -2.289  11.985  1.00  0.00    +0.006 A 
ATOM      5  C   UNL     1     -31.371  -2.628  13.334  1.00  0.00    +0.001 A 
ATOM      6  C   UNL     1     -30.557  -1.930  14.219  1.00  0.00    +0.006 A 
ENDROOT
BRANCH   1   7
ATOM      7  C   UNL     1     -28.876  -0.157  14.774  1.00  0.00    +0.034 C 
ATOM      8  C   UNL     1     -29.636   0.968  15.459  1.00  0.00    +0.009 C 
ENDBRANCH   1   7
BRANCH   2   9
ATOM      9  N   UNL     1     -28.855   0.477  11.958  1.00  0.00    -0.339 N 
ATOM     10  H   UNL     1     -29.335   1.119  11.334  1.00  0.00    +0.168 HD
BRANCH   9  11
ATOM     11  C   UNL     1     -27.520   0.391  11.537  1.00  0.00    +0.145 A 
ATOM     12  C   UNL     1     -26.574   1.418  11.613  1.00  0.00    +0.082 A 
ATOM     13  N   UNL     1     -27.127  -0.793  11.002  1.00  0.00    -0.215 NA
ATOM     14  C   UNL     1     -26.497   2.755  12.058  1.00  0.00    +0.149 A 
ATOM     15  C   UNL     1     -25.304   1.142  11.142  1.00  0.00    +0.163 A 
ATOM     16  C   UNL     1     -25.856  -0.940  10.563  1.00  0.00    +0.130 A 
ATOM     17  N   UNL     1     -25.283   3.294  11.890  1.00  0.00    -0.179 NA
ATOM     18  N   UNL     1     -24.577   2.286  11.327  1.00  0.00    -0.250 N 
ATOM     19  N   UNL     1     -24.878  -0.016  10.612  1.00  0.00    -0.214 NA
ATOM     20  C   UNL     1     -25.488  -2.284  10.009  1.00  0.00    +0.090 C 
ATOM     21  C   UNL     1     -23.191   2.497  10.991  1.00  0.00    +0.176 C 
ENDBRANCH   9  11
ENDBRANCH   2   9
BRANCH   3  22
ATOM     22  C   UNL     1     -30.679  -0.913  10.021  1.00  0.00    +0.034 C 
ATOM     23  C   UNL     1     -31.707   0.183   9.781  1.00  0.00    +0.009 C 
ENDBRANCH   3  22
TORSDOF 4
ENDMDL
