MODEL 1
REMARK VINA RESULT:    -6.997      0.000      0.000
REMARK INTER + INTRA:         -10.134
REMARK INTER:                  -9.247
REMARK INTRA:                  -0.888
REMARK UNBOUND:                -0.888
REMARK SMILES CCCC(=O)Oc1ccccc1C(=O)O
REMARK SMILES IDX 6 1 4 2 5 3 3 4 2 5 1 6 7 7 12 8 8 9 11 10 9 11 10 12 13 13
REMARK SMILES IDX 14 14 15 15
REMARK H PARENT 15 16
ROOT
ATOM      1  O   UNL     1     -26.619   8.777   5.559  1.00  0.00    -0.426 OA
ENDROOT
BRANCH   1   2
ATOM      2  C   UNL     1     -25.827   8.409   6.645  1.00  0.00    +0.311 C 
ATOM      3  O   UNL     1     -25.285   9.168   7.437  1.00  0.00    -0.252 OA
BRANCH   2   4
ATOM      4  C   UNL     1     -25.736   6.900   6.671  1.00  0.00    +0.123 C 
BRANCH   4   5
ATOM      5  C   UNL     1     -26.374   6.313   7.928  1.00  0.00    +0.008 C 
ATOM      6  C   UNL     1     -25.456   5.307   8.601  1.00  0.00    +0.004 C 
ENDBRANCH   4   5
ENDBRANCH   2   4
ENDBRANCH   1   2
BRANCH   1   7
ATOM      7  C   UNL     1     -27.687   9.600   5.925  1.00  0.00    +0.145 A 
ATOM      8  C   UNL     1     -27.710  10.977   5.666  1.00  0.00    +0.102 A 
ATOM      9  C   UNL     1     -28.728   8.982   6.629  1.00  0.00    +0.048 A 
ATOM     10  C   UNL     1     -28.825  11.718   6.093  1.00  0.00    +0.019 A 
ATOM     11  C   UNL     1     -29.824   9.734   7.050  1.00  0.00    +0.004 A 
ATOM     12  C   UNL     1     -29.875  11.100   6.778  1.00  0.00    +0.001 A 
BRANCH   8  13
ATOM     13  C   UNL     1     -26.637  11.733   4.971  1.00  0.00    +0.339 C 
ATOM     14  O   UNL     1     -26.821  12.593   4.128  1.00  0.00    -0.246 OA
BRANCH  13  15
ATOM     15  O   UNL     1     -25.388  11.433   5.366  1.00  0.00    -0.478 OA
ATOM     16  H   UNL     1     -24.985  11.049   4.558  1.00  0.00    +0.297 HD
ENDBRANCH  13  15
ENDBRANCH   8  13
ENDBRANCH   1   7
TORSDOF 6
ENDMDL
MODEL 2
REMARK VINA RESULT:    -6.438      2.713      4.376
REMARK INTER + INTRA:          -9.397
REMARK INTER:                  -8.461
REMARK INTRA:                  -0.935
REMARK UNBOUND:                -0.888
REMARK SMILES CCCC(=O)Oc1ccccc1C(=O)O
REMARK SMILES IDX 6 1 4 2 5 3 3 4 2 5 1 6 7 7 12 8 8 9 11 10 9 11 10 12 13 13
REMARK SMILES IDX 14 14 15 15
REMARK H PARENT 15 16
ROOT
ATOM      1  O   UNL     1     -28.836   8.489   6.355  1.00  0.00    -0.426 OA
ENDROOT
BRANCH   1   2
ATOM      2  C   UNL     1     -27.870   8.117   7.287  1.00  0.00    +0.311 C 
ATOM      3  O   UNL     1     -28.049   7.930   8.483  1.00  0.00    -0.252 OA
BRANCH   2   4
ATOM      4  C   UNL     1     -26.545   7.997   6.568  1.00  0.00    +0.123 C 
BRANCH   4   5
ATOM      5  C   UNL     1     -26.394   9.051   5.474  1.00  0.00    +0.008 C 
ATOM      6  C   UNL     1     -25.741  10.315   6.005  1.00  0.00    +0.004 C 
ENDBRANCH   4   5
ENDBRANCH   2   4
ENDBRANCH   1   2
BRANCH   1   7
ATOM      7  C   UNL     1     -29.731   9.438   6.857  1.00  0.00    +0.145 A 
ATOM      8  C   UNL     1     -31.022   9.112   7.292  1.00  0.00    +0.102 A 
ATOM      9  C   UNL     1     -29.287  10.766   6.851  1.00  0.00    +0.048 A 
ATOM     10  C   UNL     1     -31.849  10.146   7.762  1.00  0.00    +0.019 A 
ATOM     11  C   UNL     1     -30.124  11.780   7.317  1.00  0.00    +0.004 A 
ATOM     12  C   UNL     1     -31.402  11.470   7.776  1.00  0.00    +0.001 A 
BRANCH   8  13
ATOM     13  C   UNL     1     -31.602   7.745   7.294  1.00  0.00    +0.339 C 
ATOM     14  O   UNL     1     -32.573   7.395   6.644  1.00  0.00    -0.246 OA
BRANCH  13  15
ATOM     15  O   UNL     1     -30.947   6.854   8.058  1.00  0.00    -0.478 OA
ATOM     16  H   UNL     1     -31.379   6.004   7.827  1.00  0.00    +0.297 HD
ENDBRANCH  13  15
ENDBRANCH   8  13
ENDBRANCH   1   7
TORSDOF 6
ENDMDL
MODEL 3
REMARK VINA RESULT:    -6.181      5.668      9.265
REMARK INTER + INTRA:          -9.056
REMARK INTER:                  -8.277
REMARK INTRA:                  -0.779
REMARK UNBOUND:                -0.888
REMARK SMILES CCCC(=O)Oc1ccccc1C(=O)O
REMARK SMILES IDX 6 1 4 2 5 3 3 4 2 5 1 6 7 7 12 8 8 9 11 10 9 11 10 12 13 13
REMARK SMILES IDX 14 14 15 15
REMARK H PARENT 15 16
ROOT
ATOM      1  O   UNL     1     -25.170   3.320   9.144  1.00  0.00    -0.426 OA
ENDROOT
BRANCH   1   2
ATOM      2  C   UNL     1     -25.920   4.287   9.811  1.00  0.00    +0.311 C 
ATOM      3  O   UNL     1     -26.147   4.328  11.012  1.00  0.00    -0.252 OA
BRANCH   2   4
ATOM      4  C   UNL     1     -26.424   5.278   8.787  1.00  0.00    +0.123 C 
BRANCH   4   5
ATOM      5  C   UNL     1     -25.406   5.515   7.673  1.00  0.00    +0.008 C 
ATOM      6  C   UNL     1     -25.104   6.993   7.499  1.00  0.00    +0.004 C 
ENDBRANCH   4   5
ENDBRANCH   2   4
ENDBRANCH   1   2
BRANCH   1   7
ATOM      7  C   UNL     1     -25.358   2.038   9.667  1.00  0.00    +0.145 A 
ATOM      8  C   UNL     1     -24.401   1.391  10.460  1.00  0.00    +0.102 A 
ATOM      9  C   UNL     1     -26.548   1.394   9.305  1.00  0.00    +0.048 A 
ATOM     10  C   UNL     1     -24.682   0.094  10.920  1.00  0.00    +0.019 A 
ATOM     11  C   UNL     1     -26.808   0.104   9.767  1.00  0.00    +0.004 A 
ATOM     12  C   UNL     1     -25.878  -0.543  10.578  1.00  0.00    +0.001 A 
BRANCH   8  13
ATOM     13  C   UNL     1     -23.092   1.968  10.859  1.00  0.00    +0.339 C 
ATOM     14  O   UNL     1     -22.013   1.419  10.718  1.00  0.00    -0.246 OA
BRANCH  13  15
ATOM     15  O   UNL     1     -23.155   3.207  11.375  1.00  0.00    -0.478 OA
ATOM     16  H   UNL     1     -23.867   3.133  12.046  1.00  0.00    +0.297 HD
ENDBRANCH  13  15
ENDBRANCH   8  13
ENDBRANCH   1   7
TORSDOF 6
ENDMDL
MODEL 4
REMARK VINA RESULT:    -6.134      1.571      3.042
REMARK INTER + INTRA:          -8.994
REMARK INTER:                  -8.690
REMARK INTRA:                  -0.304
REMARK UNBOUND:                -0.888
REMARK SMILES CCCC(=O)Oc1ccccc1C(=O)O
REMARK SMILES IDX 6 1 4 2 5 3 3 4 2 5 1 6 7 7 12 8 8 9 11 10 9 11 10 12 13 13
REMARK SMILES IDX 14 14 15 15
REMARK H PARENT 15 16
ROOT
ATOM      1  O   UNL     1     -26.749   8.546   5.741  1.00  0.00    -0.426 OA
ENDROOT
BRANCH   1   2
ATOM      2  C   UNL     1     -25.752   8.466   6.711  1.00  0.00    +0.311 C 
ATOM      3  O   UNL     1     -25.441   9.344   7.505  1.00  0.00    -0.252 OA
BRANCH   2   4
ATOM      4  C   UNL     1     -25.102   7.106   6.606  1.00  0.00    +0.123 C 
BRANCH   4   5
ATOM      5  C   UNL     1     -25.095   6.373   7.946  1.00  0.00    +0.008 C 
ATOM      6  C   UNL     1     -26.192   5.325   8.014  1.00  0.00    +0.004 C 
ENDBRANCH   4   5
ENDBRANCH   2   4
ENDBRANCH   1   2
BRANCH   1   7
ATOM      7  C   UNL     1     -27.603   9.634   5.935  1.00  0.00    +0.145 A 
ATOM      8  C   UNL     1     -28.807   9.540   6.648  1.00  0.00    +0.102 A 
ATOM      9  C   UNL     1     -27.221  10.834   5.323  1.00  0.00    +0.048 A 
ATOM     10  C   UNL     1     -29.602  10.692   6.769  1.00  0.00    +0.019 A 
ATOM     11  C   UNL     1     -28.026  11.966   5.449  1.00  0.00    +0.004 A 
ATOM     12  C   UNL     1     -29.213  11.896   6.175  1.00  0.00    +0.001 A 
BRANCH   8  13
ATOM     13  C   UNL     1     -29.323   8.307   7.292  1.00  0.00    +0.339 C 
ATOM     14  O   UNL     1     -28.733   7.660   8.140  1.00  0.00    -0.246 OA
BRANCH  13  15
ATOM     15  O   UNL     1     -30.555   7.938   6.902  1.00  0.00    -0.478 OA
ATOM     16  H   UNL     1     -31.132   8.316   7.600  1.00  0.00    +0.297 HD
ENDBRANCH  13  15
ENDBRANCH   8  13
ENDBRANCH   1   7
TORSDOF 6
ENDMDL
MODEL 5
REMARK VINA RESULT:    -5.933      9.561     11.325
REMARK INTER + INTRA:          -8.729
REMARK INTER:                  -8.183
REMARK INTRA:                  -0.546
REMARK UNBOUND:                -0.888
REMARK SMILES CCCC(=O)Oc1ccccc1C(=O)O
REMARK SMILES IDX 6 1 4 2 5 3 3 4 2 5 1 6 7 7 12 8 8 9 11 10 9 11 10 12 13 13
REMARK SMILES IDX 14 14 15 15
REMARK H PARENT 15 16
ROOT
ATOM      1  O   UNL     1     -35.035   4.748   9.416  1.00  0.00    -0.426 OA
ENDROOT
BRANCH   1   2
ATOM      2  C   UNL     1     -34.941   4.687   8.027  1.00  0.00    +0.311 C 
ATOM      3  O   UNL     1     -35.017   3.678   7.339  1.00  0.00    -0.252 OA
BRANCH   2   4
ATOM      4  C   UNL     1     -34.712   6.089   7.509  1.00  0.00    +0.123 C 
BRANCH   4   5
ATOM      5  C   UNL     1     -33.553   6.147   6.518  1.00  0.00    +0.008 C 
ATOM      6  C   UNL     1     -34.048   6.269   5.087  1.00  0.00    +0.004 C 
ENDBRANCH   4   5
ENDBRANCH   2   4
ENDBRANCH   1   2
BRANCH   1   7
ATOM      7  C   UNL     1     -36.187   4.129   9.906  1.00  0.00    +0.145 A 
ATOM      8  C   UNL     1     -37.399   4.809  10.086  1.00  0.00    +0.102 A 
ATOM      9  C   UNL     1     -36.056   2.783  10.270  1.00  0.00    +0.048 A 
ATOM     10  C   UNL     1     -38.494   4.096  10.603  1.00  0.00    +0.019 A 
ATOM     11  C   UNL     1     -37.152   2.093  10.786  1.00  0.00    +0.004 A 
ATOM     12  C   UNL     1     -38.371   2.748  10.948  1.00  0.00    +0.001 A 
BRANCH   8  13
ATOM     13  C   UNL     1     -37.627   6.243   9.777  1.00  0.00    +0.339 C 
ATOM     14  O   UNL     1     -38.581   6.683   9.160  1.00  0.00    -0.246 OA
BRANCH  13  15
ATOM     15  O   UNL     1     -36.700   7.082  10.271  1.00  0.00    -0.478 OA
ATOM     16  H   UNL     1     -37.103   7.387  11.112  1.00  0.00    +0.297 HD
ENDBRANCH  13  15
ENDBRANCH   8  13
ENDBRANCH   1   7
TORSDOF 6
ENDMDL
MODEL 6
REMARK VINA RESULT:    -5.886      9.419     11.396
REMARK INTER + INTRA:          -8.666
REMARK INTER:                  -7.874
REMARK INTRA:                  -0.792
REMARK UNBOUND:                -0.888
REMARK SMILES CCCC(=O)Oc1ccccc1C(=O)O
REMARK SMILES IDX 6 1 4 2 5 3 3 4 2 5 1 6 7 7 12 8 8 9 11 10 9 11 10 12 13 13
REMARK SMILES IDX 14 14 15 15
REMARK H PARENT 15 16
ROOT
ATOM      1  O   UNL     1     -34.827   4.460   8.928  1.00  0.00    -0.426 OA
ENDROOT
BRANCH   1   2
ATOM      2  C   UNL     1     -34.664   4.421   7.544  1.00  0.00    +0.311 C 
ATOM      3  O   UNL     1     -35.098   3.563   6.787  1.00  0.00    -0.252 OA
BRANCH   2   4
ATOM      4  C   UNL     1     -33.839   5.619   7.134  1.00  0.00    +0.123 C 
BRANCH   4   5
ATOM      5  C   UNL     1     -33.808   5.796   5.617  1.00  0.00    +0.008 C 
ATOM      6  C   UNL     1     -32.797   6.850   5.200  1.00  0.00    +0.004 C 
ENDBRANCH   4   5
ENDBRANCH   2   4
ENDBRANCH   1   2
BRANCH   1   7
ATOM      7  C   UNL     1     -36.167   4.557   9.310  1.00  0.00    +0.145 A 
ATOM      8  C   UNL     1     -36.906   3.463   9.778  1.00  0.00    +0.102 A 
ATOM      9  C   UNL     1     -36.766   5.813   9.145  1.00  0.00    +0.048 A 
ATOM     10  C   UNL     1     -38.254   3.665  10.119  1.00  0.00    +0.019 A 
ATOM     11  C   UNL     1     -38.106   5.993   9.483  1.00  0.00    +0.004 A 
ATOM     12  C   UNL     1     -38.848   4.922   9.975  1.00  0.00    +0.001 A 
BRANCH   8  13
ATOM     13  C   UNL     1     -36.379   2.085   9.944  1.00  0.00    +0.339 C 
ATOM     14  O   UNL     1     -36.366   1.461  10.991  1.00  0.00    -0.246 OA
BRANCH  13  15
ATOM     15  O   UNL     1     -35.929   1.513   8.814  1.00  0.00    -0.478 OA
ATOM     16  H   UNL     1     -36.328   2.067   8.110  1.00  0.00    +0.297 HD
ENDBRANCH  13  15
ENDBRANCH   8  13
ENDBRANCH   1   7
TORSDOF 6
ENDMDL
MODEL 7
REMARK VINA RESULT:    -5.872      7.248      9.787
REMARK INTER + INTRA:          -8.648
REMARK INTER:                  -7.786
REMARK INTRA:                  -0.862
REMARK UNBOUND:                -0.888
REMARK SMILES CCCC(=O)Oc1ccccc1C(=O)O
REMARK SMILES IDX 6 1 4 2 5 3 3 4 2 5 1 6 7 7 12 8 8 9 11 10 9 11 10 12 13 13
REMARK SMILES IDX 14 14 15 15
REMARK H PARENT 15 16
ROOT
ATOM      1  O   UNL     1     -26.808   1.418  10.353  1.00  0.00    -0.426 OA
ENDROOT
BRANCH   1   2
ATOM      2  C   UNL     1     -27.569   1.263  11.510  1.00  0.00    +0.311 C 
ATOM      3  O   UNL     1     -27.658   2.061  12.433  1.00  0.00    -0.252 OA
BRANCH   2   4
ATOM      4  C   UNL     1     -28.261  -0.080  11.441  1.00  0.00    +0.123 C 
BRANCH   4   5
ATOM      5  C   UNL     1     -28.683  -0.430  10.016  1.00  0.00    +0.008 C 
ATOM      6  C   UNL     1     -30.194  -0.518   9.887  1.00  0.00    +0.004 C 
ENDBRANCH   4   5
ENDBRANCH   2   4
ENDBRANCH   1   2
BRANCH   1   7
ATOM      7  C   UNL     1     -25.441   1.527  10.618  1.00  0.00    +0.145 A 
ATOM      8  C   UNL     1     -24.768   2.756  10.657  1.00  0.00    +0.102 A 
ATOM      9  C   UNL     1     -24.750   0.321  10.791  1.00  0.00    +0.048 A 
ATOM     10  C   UNL     1     -23.387   2.752  10.914  1.00  0.00    +0.019 A 
ATOM     11  C   UNL     1     -23.378   0.337  11.040  1.00  0.00    +0.004 A 
ATOM     12  C   UNL     1     -22.698   1.551  11.107  1.00  0.00    +0.001 A 
BRANCH   8  13
ATOM     13  C   UNL     1     -25.400   4.082  10.440  1.00  0.00    +0.339 C 
ATOM     14  O   UNL     1     -25.186   4.812   9.489  1.00  0.00    -0.246 OA
BRANCH  13  15
ATOM     15  O   UNL     1     -26.296   4.440  11.376  1.00  0.00    -0.478 OA
ATOM     16  H   UNL     1     -27.068   4.730  10.844  1.00  0.00    +0.297 HD
ENDBRANCH  13  15
ENDBRANCH   8  13
ENDBRANCH   1   7
TORSDOF 6
ENDMDL
MODEL 8
REMARK VINA RESULT:    -5.656      2.774      4.253
REMARK INTER + INTRA:          -8.363
REMARK INTER:                  -8.309
REMARK INTRA:                  -0.054
REMARK UNBOUND:                -0.888
REMARK SMILES CCCC(=O)Oc1ccccc1C(=O)O
REMARK SMILES IDX 6 1 4 2 5 3 3 4 2 5 1 6 7 7 12 8 8 9 11 10 9 11 10 12 13 13
REMARK SMILES IDX 14 14 15 15
REMARK H PARENT 15 16
ROOT
ATOM      1  O   UNL     1     -29.309   8.450   6.229  1.00  0.00    -0.426 OA
ENDROOT
BRANCH   1   2
ATOM      2  C   UNL     1     -27.927   8.625   6.181  1.00  0.00    +0.311 C 
ATOM      3  O   UNL     1     -27.273   8.967   5.205  1.00  0.00    -0.252 OA
BRANCH   2   4
ATOM      4  C   UNL     1     -27.365   8.302   7.547  1.00  0.00    +0.123 C 
BRANCH   4   5
ATOM      5  C   UNL     1     -27.921   6.990   8.096  1.00  0.00    +0.008 C 
ATOM      6  C   UNL     1     -26.844   5.923   8.186  1.00  0.00    +0.004 C 
ENDBRANCH   4   5
ENDBRANCH   2   4
ENDBRANCH   1   2
BRANCH   1   7
ATOM      7  C   UNL     1     -29.974   9.560   6.754  1.00  0.00    +0.145 A 
ATOM      8  C   UNL     1     -31.218   9.469   7.394  1.00  0.00    +0.102 A 
ATOM      9  C   UNL     1     -29.355  10.800   6.556  1.00  0.00    +0.048 A 
ATOM     10  C   UNL     1     -31.810  10.651   7.871  1.00  0.00    +0.019 A 
ATOM     11  C   UNL     1     -29.960  11.963   7.032  1.00  0.00    +0.004 A 
ATOM     12  C   UNL     1     -31.184  11.888   7.692  1.00  0.00    +0.001 A 
BRANCH   8  13
ATOM     13  C   UNL     1     -31.977   8.212   7.611  1.00  0.00    +0.339 C 
ATOM     14  O   UNL     1     -31.490   7.154   7.969  1.00  0.00    -0.246 OA
BRANCH  13  15
ATOM     15  O   UNL     1     -33.303   8.313   7.419  1.00  0.00    -0.478 OA
ATOM     16  H   UNL     1     -33.582   7.380   7.298  1.00  0.00    +0.297 HD
ENDBRANCH  13  15
ENDBRANCH   8  13
ENDBRANCH   1   7
TORSDOF 6
ENDMDL
MODEL 9
REMARK VINA RESULT:    -5.615      8.714     10.514
REMARK INTER + INTRA:          -8.309
REMARK INTER:                  -7.562
REMARK INTRA:                  -0.746
REMARK UNBOUND:                -0.888
REMARK SMILES CCCC(=O)Oc1ccccc1C(=O)O
REMARK SMILES IDX 6 1 4 2 5 3 3 4 2 5 1 6 7 7 12 8 8 9 11 10 9 11 10 12 13 13
REMARK SMILES IDX 14 14 15 15
REMARK H PARENT 15 16
ROOT
ATOM      1  O   UNL     1     -36.574   5.459   8.638  1.00  0.00    -0.426 OA
ENDROOT
BRANCH   1   2
ATOM      2  C   UNL     1     -37.218   6.175   9.645  1.00  0.00    +0.311 C 
ATOM      3  O   UNL     1     -36.704   6.992  10.397  1.00  0.00    -0.252 OA
BRANCH   2   4
ATOM      4  C   UNL     1     -38.671   5.757   9.663  1.00  0.00    +0.123 C 
BRANCH   4   5
ATOM      5  C   UNL     1     -38.826   4.241   9.759  1.00  0.00    +0.008 C 
ATOM      6  C   UNL     1     -38.515   3.737  11.158  1.00  0.00    +0.004 C 
ENDBRANCH   4   5
ENDBRANCH   2   4
ENDBRANCH   1   2
BRANCH   1   7
ATOM      7  C   UNL     1     -35.296   5.036   9.012  1.00  0.00    +0.145 A 
ATOM      8  C   UNL     1     -34.127   5.528   8.417  1.00  0.00    +0.102 A 
ATOM      9  C   UNL     1     -35.240   4.033   9.988  1.00  0.00    +0.048 A 
ATOM     10  C   UNL     1     -32.891   5.021   8.854  1.00  0.00    +0.019 A 
ATOM     11  C   UNL     1     -34.006   3.539  10.406  1.00  0.00    +0.004 A 
ATOM     12  C   UNL     1     -32.832   4.035   9.843  1.00  0.00    +0.001 A 
BRANCH   8  13
ATOM     13  C   UNL     1     -34.081   6.553   7.344  1.00  0.00    +0.339 C 
ATOM     14  O   UNL     1     -33.578   6.394   6.245  1.00  0.00    -0.246 OA
BRANCH  13  15
ATOM     15  O   UNL     1     -34.688   7.714   7.645  1.00  0.00    -0.478 OA
ATOM     16  H   UNL     1     -35.276   7.470   8.392  1.00  0.00    +0.297 HD
ENDBRANCH  13  15
ENDBRANCH   8  13
ENDBRANCH   1   7
TORSDOF 6
ENDMDL
