REMARK SMILES O=c1cc(CO)oc([C@@H](Nc2ccccc2)c2ccccc2)c1O
REMARK SMILES IDX 4 1 3 2 2 3 1 4 23 5 8 6 7 7 5 8 6 9 9 11 10 12 11 14 12 15
REMARK SMILES IDX 16 16 13 17 15 18 14 19 17 20 18 21 22 22 19 23 21 24 20 25
REMARK SMILES IDX 24 26
REMARK H PARENT 6 10 10 13 24 27
ROOT
ATOM      1  C   UNL     1      -2.161  -1.935  -0.484  1.00  0.00    +0.133 A 
ATOM      2  C   UNL     1      -2.522  -2.563   0.643  1.00  0.00    +0.101 A 
ATOM      3  C   UNL     1      -1.942  -2.115   1.914  1.00  0.00    +0.227 A 
ATOM      4  O   UNL     1      -2.224  -2.639   2.987  1.00  0.00    -0.286 OA
ATOM      5  C   UNL     1      -0.977  -0.989   1.870  1.00  0.00    +0.205 A 
ATOM      6  C   UNL     1      -0.684  -0.437   0.682  1.00  0.00    +0.176 A 
ATOM      7  O   UNL     1      -1.261  -0.881  -0.506  1.00  0.00    -0.457 OA
ENDROOT
BRANCH   1   8
ATOM      8  C   UNL     1      -2.690  -2.310  -1.835  1.00  0.00    +0.231 C 
BRANCH   8   9
ATOM      9  O   UNL     1      -3.403  -1.211  -2.389  1.00  0.00    -0.388 OA
ATOM     10  H   UNL     1      -2.848  -0.423  -2.250  1.00  0.00    +0.211 HD
ENDBRANCH   8   9
ENDBRANCH   1   8
BRANCH   6  11
ATOM     11  C   UNL     1       0.300   0.711   0.530  1.00  0.00    +0.181 C 
BRANCH  11  12
ATOM     12  N   UNL     1       1.219   0.453  -0.592  1.00  0.00    -0.371 N 
ATOM     13  H   UNL     1       1.452   1.312  -1.084  1.00  0.00    +0.161 HD
BRANCH  12  14
ATOM     14  C   UNL     1       2.357  -0.347  -0.455  1.00  0.00    +0.035 A 
ATOM     15  C   UNL     1       3.276  -0.363  -1.517  1.00  0.00    +0.026 A 
ATOM     16  C   UNL     1       2.587  -1.228   0.607  1.00  0.00    +0.026 A 
ATOM     17  C   UNL     1       4.409  -1.182  -1.494  1.00  0.00    +0.002 A 
ATOM     18  C   UNL     1       3.720  -2.050   0.637  1.00  0.00    +0.002 A 
ATOM     19  C   UNL     1       4.634  -2.024  -0.412  1.00  0.00    +0.000 A 
ENDBRANCH  12  14
ENDBRANCH  11  12
BRANCH  11  20
ATOM     20  C   UNL     1      -0.444   2.028   0.286  1.00  0.00    -0.018 A 
ATOM     21  C   UNL     1      -0.592   2.948   1.337  1.00  0.00    +0.006 A 
ATOM     22  C   UNL     1      -1.022   2.335  -0.959  1.00  0.00    +0.006 A 
ATOM     23  C   UNL     1      -1.283   4.146   1.145  1.00  0.00    +0.000 A 
ATOM     24  C   UNL     1      -1.713   3.533  -1.149  1.00  0.00    +0.000 A 
ATOM     25  C   UNL     1      -1.842   4.438  -0.098  1.00  0.00    +0.000 A 
ENDBRANCH  11  20
ENDBRANCH   6  11
BRANCH   5  26
ATOM     26  O   UNL     1      -0.426  -0.567   3.066  1.00  0.00    -0.502 OA
ATOM     27  H   UNL     1      -0.836  -1.145   3.747  1.00  0.00    +0.293 HD
ENDBRANCH   5  26
TORSDOF 7
