REMARK SMILES Cc1cc2ccccc2c(Br)c1C
REMARK SMILES IDX 1 1 2 2 12 3 13 4 10 5 9 6 8 7 7 8 6 9 5 10 4 11 3 12 11 13
REMARK H PARENT
ROOT
ATOM      1  C   UNL     1      -2.764  -1.352   0.085  1.00  0.00    +0.044 C 
ATOM      2  C   UNL     1      -1.453  -0.613   0.030  1.00  0.00    -0.046 A 
ATOM      3  C   UNL     1      -1.378   0.779  -0.174  1.00  0.00    -0.033 A 
ATOM      4  C   UNL     1      -2.632   1.603  -0.350  1.00  0.00    +0.046 C 
ATOM      5  C   UNL     1      -0.099   1.394  -0.212  1.00  0.00    +0.029 A 
ATOM      6  C   UNL     1       1.106   0.645  -0.050  1.00  0.00    -0.004 A 
ATOM      7  C   UNL     1       2.418   1.188  -0.075  1.00  0.00    +0.010 A 
ATOM      8  C   UNL     1       3.555   0.393   0.091  1.00  0.00    +0.001 A 
ATOM      9  C   UNL     1       3.419  -0.972   0.289  1.00  0.00    +0.001 A 
ATOM     10  C   UNL     1       2.146  -1.538   0.320  1.00  0.00    +0.009 A 
ATOM     11  C   UNL     1       0.995  -0.748   0.153  1.00  0.00    -0.017 A 
ATOM     12  C   UNL     1      -0.270  -1.351   0.190  1.00  0.00    +0.012 A 
ATOM     13 Br   UNL     1       0.006   3.295  -0.491  1.00  0.00    -0.050 Br
ENDROOT
TORSDOF 0
