REMARK SMILES CCc1nc(Nc2cccc(Cl)c2)c2cnn(-c3ccccc3)c2n1
REMARK SMILES IDX 3 1 4 2 5 3 14 4 15 5 16 6 17 7 24 8 25 9 2 10 1 11 6 12
REMARK SMILES IDX 7 14 13 15 8 16 11 17 9 18 10 19 12 20 18 21 19 22 23 23
REMARK SMILES IDX 20 24 22 25 21 26
REMARK H PARENT 6 13
ROOT
ATOM      1  C   UNL     1       0.088   1.400   0.698  1.00  0.00    +0.133 A 
ATOM      2  N   UNL     1      -1.093   0.760   0.588  1.00  0.00    -0.215 NA
ATOM      3  C   UNL     1      -1.141  -0.522   0.153  1.00  0.00    +0.145 A 
ATOM      4  C   UNL     1       0.085  -1.127  -0.169  1.00  0.00    +0.082 A 
ATOM      5  C   UNL     1       0.524  -2.376  -0.637  1.00  0.00    +0.150 A 
ATOM      6  N   UNL     1       1.845  -2.445  -0.787  1.00  0.00    -0.174 NA
ATOM      7  N   UNL     1       2.301  -1.208  -0.413  1.00  0.00    -0.215 N 
ATOM      8  C   UNL     1       1.244  -0.381  -0.027  1.00  0.00    +0.168 A 
ATOM      9  N   UNL     1       1.296   0.895   0.402  1.00  0.00    -0.213 NA
ENDROOT
BRANCH   1  10
ATOM     10  C   UNL     1       0.043   2.830   1.165  1.00  0.00    +0.074 C 
ATOM     11  C   UNL     1      -0.131   3.784  -0.005  1.00  0.00    +0.012 C 
ENDBRANCH   1  10
BRANCH   3  12
ATOM     12  N   UNL     1      -2.353  -1.221   0.035  1.00  0.00    -0.339 N 
ATOM     13  H   UNL     1      -2.239  -2.175  -0.280  1.00  0.00    +0.168 HD
BRANCH  12  14
ATOM     14  C   UNL     1      -3.693  -0.849   0.249  1.00  0.00    +0.041 A 
ATOM     15  C   UNL     1      -4.689  -1.829   0.105  1.00  0.00    +0.046 A 
ATOM     16  C   UNL     1      -4.100   0.440   0.613  1.00  0.00    +0.026 A 
ATOM     17  C   UNL     1      -6.037  -1.523   0.314  1.00  0.00    +0.043 A 
ATOM     18  C   UNL     1      -5.451   0.747   0.821  1.00  0.00    +0.004 A 
ATOM     19  C   UNL     1      -6.423  -0.237   0.671  1.00  0.00    +0.020 A 
ATOM     20 Cl   UNL     1      -7.228  -2.752   0.127  1.00  0.00    -0.084 Cl
ENDBRANCH  12  14
ENDBRANCH   3  12
BRANCH   7  21
ATOM     21  C   UNL     1       3.703  -0.932  -0.458  1.00  0.00    +0.067 A 
ATOM     22  C   UNL     1       4.229   0.313  -0.089  1.00  0.00    +0.028 A 
ATOM     23  C   UNL     1       4.585  -1.940  -0.886  1.00  0.00    +0.028 A 
ATOM     24  C   UNL     1       5.608   0.542  -0.148  1.00  0.00    +0.002 A 
ATOM     25  C   UNL     1       5.962  -1.705  -0.942  1.00  0.00    +0.002 A 
ATOM     26  C   UNL     1       6.472  -0.464  -0.573  1.00  0.00    +0.000 A 
ENDBRANCH   7  21
TORSDOF 4
