REMARK SMILES Cc1ccc(Nc2ncnc3c2cnn3-c2ccccc2)cc1
REMARK SMILES IDX 6 1 5 3 2 4 3 5 23 6 4 7 22 8 1 9 7 10 12 11 8 12 13 13
REMARK SMILES IDX 11 14 9 15 14 16 15 17 10 18 16 19 17 20 21 21 18 22 20 23
REMARK SMILES IDX 19 24
REMARK H PARENT 6 2
ROOT
ATOM      1  N   UNL     1      -1.674  -0.740   0.034  1.00  0.00    -0.340 N 
ATOM      2  H   UNL     1      -1.492  -1.733   0.042  1.00  0.00    +0.168 HD
ENDROOT
BRANCH   1   3
ATOM      3  C   UNL     1      -3.044  -0.422   0.036  1.00  0.00    +0.040 A 
ATOM      4  C   UNL     1      -5.842   0.072   0.035  1.00  0.00    -0.051 A 
ATOM      5  C   UNL     1      -5.353  -1.234  -0.010  1.00  0.00    +0.005 A 
ATOM      6  C   UNL     1      -4.928   1.128   0.057  1.00  0.00    +0.005 A 
ATOM      7  C   UNL     1      -3.974  -1.474  -0.005  1.00  0.00    +0.026 A 
ATOM      8  C   UNL     1      -3.549   0.880   0.062  1.00  0.00    +0.026 A 
ATOM      9  C   UNL     1      -7.316   0.339  -0.005  1.00  0.00    +0.044 C 
ENDBRANCH   1   3
BRANCH   1  10
ATOM     10  C   UNL     1      -0.512   0.047   0.043  1.00  0.00    +0.144 A 
ATOM     11  C   UNL     1       0.765  -0.542   0.060  1.00  0.00    +0.082 A 
ATOM     12  N   UNL     1      -0.561   1.402   0.034  1.00  0.00    -0.218 NA
ATOM     13  C   UNL     1       1.297  -1.841   0.074  1.00  0.00    +0.150 A 
ATOM     14  C   UNL     1       1.877   0.289   0.067  1.00  0.00    +0.168 A 
ATOM     15  C   UNL     1       0.583   2.106   0.041  1.00  0.00    +0.226 A 
ATOM     16  N   UNL     1       2.628  -1.864   0.088  1.00  0.00    -0.174 NA
ATOM     17  N   UNL     1       2.998  -0.545   0.084  1.00  0.00    -0.215 N 
ATOM     18  N   UNL     1       1.836   1.637   0.058  1.00  0.00    -0.216 NA
BRANCH  17  19
ATOM     19  C   UNL     1       4.386  -0.204   0.097  1.00  0.00    +0.067 A 
ATOM     20  C   UNL     1       4.827   1.125   0.093  1.00  0.00    +0.028 A 
ATOM     21  C   UNL     1       5.343  -1.235   0.113  1.00  0.00    +0.028 A 
ATOM     22  C   UNL     1       6.195   1.416   0.106  1.00  0.00    +0.002 A 
ATOM     23  C   UNL     1       6.709  -0.939   0.126  1.00  0.00    +0.002 A 
ATOM     24  C   UNL     1       7.134   0.387   0.122  1.00  0.00    +0.000 A 
ENDBRANCH  17  19
ENDBRANCH   1  10
TORSDOF 3
