MODEL 1
REMARK VINA RESULT:    -8.078      0.000      0.000
REMARK INTER + INTRA:         -10.328
REMARK INTER:                  -9.730
REMARK INTRA:                  -0.597
REMARK UNBOUND:                -0.597
REMARK SMILES COc1ccc2ccccc2c1C=C(C)C(=O)O
REMARK SMILES IDX 13 1 14 2 15 3 12 4 3 5 4 6 5 7 11 8 6 9 10 10 7 11 9 12
REMARK SMILES IDX 8 13 2 14 1 15 16 16 17 17 18 18
REMARK H PARENT 18 19
ROOT
ATOM      1  C   UNL     1     -27.535   9.687   7.295  1.00  0.00    +0.023 C 
ATOM      2  C   UNL     1     -26.577   9.375   6.400  1.00  0.00    +0.035 C 
ATOM      3  C   UNL     1     -25.164   9.101   6.821  1.00  0.00    +0.052 C 
ENDROOT
BRANCH   1   4
ATOM      4  C   UNL     1     -28.947  10.023   7.011  1.00  0.00    +0.025 A 
ATOM      5  C   UNL     1     -29.230  11.303   6.481  1.00  0.00    +0.126 A 
ATOM      6  C   UNL     1     -30.551  11.658   6.209  1.00  0.00    +0.048 A 
ATOM      7  C   UNL     1     -31.587  10.760   6.462  1.00  0.00    +0.012 A 
ATOM      8  C   UNL     1     -29.998   9.089   7.253  1.00  0.00    -0.007 A 
ATOM      9  C   UNL     1     -31.331   9.482   6.977  1.00  0.00    -0.018 A 
ATOM     10  C   UNL     1     -29.799   7.776   7.750  1.00  0.00    +0.009 A 
ATOM     11  C   UNL     1     -32.393   8.593   7.212  1.00  0.00    +0.009 A 
ATOM     12  C   UNL     1     -30.864   6.903   7.979  1.00  0.00    +0.001 A 
ATOM     13  C   UNL     1     -32.163   7.314   7.712  1.00  0.00    +0.001 A 
BRANCH   5  14
ATOM     14  O   UNL     1     -28.151  12.121   6.242  1.00  0.00    -0.496 OA
ATOM     15  C   UNL     1     -28.305  13.122   5.244  1.00  0.00    +0.278 C 
ENDBRANCH   5  14
ENDBRANCH   1   4
BRANCH   2  16
ATOM     16  C   UNL     1     -26.790   9.312   4.937  1.00  0.00    +0.331 C 
ATOM     17  O   UNL     1     -27.365   8.407   4.356  1.00  0.00    -0.247 OA
BRANCH  16  18
ATOM     18  O   UNL     1     -26.367  10.401   4.281  1.00  0.00    -0.478 OA
ATOM     19  H   UNL     1     -25.818  10.874   4.938  1.00  0.00    +0.297 HD
ENDBRANCH  16  18
ENDBRANCH   2  16
TORSDOF 4
ENDMDL
MODEL 2
REMARK VINA RESULT:    -8.077      2.083      4.227
REMARK INTER + INTRA:         -10.326
REMARK INTER:                  -9.722
REMARK INTRA:                  -0.605
REMARK UNBOUND:                -0.597
REMARK SMILES COc1ccc2ccccc2c1C=C(C)C(=O)O
REMARK SMILES IDX 13 1 14 2 15 3 12 4 3 5 4 6 5 7 11 8 6 9 10 10 7 11 9 12
REMARK SMILES IDX 8 13 2 14 1 15 16 16 17 17 18 18
REMARK H PARENT 18 19
ROOT
ATOM      1  C   UNL     1     -29.748  10.372   7.533  1.00  0.00    +0.023 C 
ATOM      2  C   UNL     1     -31.015   9.978   7.299  1.00  0.00    +0.035 C 
ATOM      3  C   UNL     1     -32.156  10.447   8.153  1.00  0.00    +0.052 C 
ENDROOT
BRANCH   1   4
ATOM      4  C   UNL     1     -28.534   9.951   6.800  1.00  0.00    +0.025 A 
ATOM      5  C   UNL     1     -28.024  10.819   5.807  1.00  0.00    +0.126 A 
ATOM      6  C   UNL     1     -26.886  10.451   5.089  1.00  0.00    +0.048 A 
ATOM      7  C   UNL     1     -26.258   9.232   5.345  1.00  0.00    +0.012 A 
ATOM      8  C   UNL     1     -27.885   8.712   7.084  1.00  0.00    -0.007 A 
ATOM      9  C   UNL     1     -26.738   8.360   6.331  1.00  0.00    -0.018 A 
ATOM     10  C   UNL     1     -28.309   7.801   8.084  1.00  0.00    +0.009 A 
ATOM     11  C   UNL     1     -26.077   7.144   6.575  1.00  0.00    +0.009 A 
ATOM     12  C   UNL     1     -27.643   6.595   8.316  1.00  0.00    +0.001 A 
ATOM     13  C   UNL     1     -26.528   6.266   7.558  1.00  0.00    +0.001 A 
BRANCH   5  14
ATOM     14  O   UNL     1     -28.690  12.008   5.631  1.00  0.00    -0.496 OA
ATOM     15  C   UNL     1     -27.934  13.109   5.146  1.00  0.00    +0.278 C 
ENDBRANCH   5  14
ENDBRANCH   1   4
BRANCH   2  16
ATOM     16  C   UNL     1     -31.413   9.033   6.233  1.00  0.00    +0.331 C 
ATOM     17  O   UNL     1     -31.303   7.820   6.302  1.00  0.00    -0.247 OA
BRANCH  16  18
ATOM     18  O   UNL     1     -32.005   9.619   5.183  1.00  0.00    -0.478 OA
ATOM     19  H   UNL     1     -32.326   8.871   4.644  1.00  0.00    +0.297 HD
ENDBRANCH  16  18
ENDBRANCH   2  16
TORSDOF 4
ENDMDL
MODEL 3
REMARK VINA RESULT:    -7.862      5.673      8.480
REMARK INTER + INTRA:         -10.068
REMARK INTER:                  -9.554
REMARK INTRA:                  -0.514
REMARK UNBOUND:                -0.597
REMARK SMILES COc1ccc2ccccc2c1C=C(C)C(=O)O
REMARK SMILES IDX 13 1 14 2 15 3 12 4 3 5 4 6 5 7 11 8 6 9 10 10 7 11 9 12
REMARK SMILES IDX 8 13 2 14 1 15 16 16 17 17 18 18
REMARK H PARENT 18 19
ROOT
ATOM      1  C   UNL     1     -34.866   4.202   8.233  1.00  0.00    +0.023 C 
ATOM      2  C   UNL     1     -36.033   4.503   8.835  1.00  0.00    +0.035 C 
ATOM      3  C   UNL     1     -37.220   3.588   8.753  1.00  0.00    +0.052 C 
ENDROOT
BRANCH   1   4
ATOM      4  C   UNL     1     -33.642   5.031   8.197  1.00  0.00    +0.025 A 
ATOM      5  C   UNL     1     -32.769   4.975   9.309  1.00  0.00    +0.126 A 
ATOM      6  C   UNL     1     -31.610   5.751   9.314  1.00  0.00    +0.048 A 
ATOM      7  C   UNL     1     -31.315   6.581   8.233  1.00  0.00    +0.012 A 
ATOM      8  C   UNL     1     -33.337   5.861   7.077  1.00  0.00    -0.007 A 
ATOM      9  C   UNL     1     -32.158   6.646   7.116  1.00  0.00    -0.018 A 
ATOM     10  C   UNL     1     -34.138   5.950   5.910  1.00  0.00    +0.009 A 
ATOM     11  C   UNL     1     -31.829   7.482   6.035  1.00  0.00    +0.009 A 
ATOM     12  C   UNL     1     -33.799   6.786   4.844  1.00  0.00    +0.001 A 
ATOM     13  C   UNL     1     -32.645   7.555   4.908  1.00  0.00    +0.001 A 
BRANCH   5  14
ATOM     14  O   UNL     1     -33.123   4.118  10.324  1.00  0.00    -0.496 OA
ATOM     15  C   UNL     1     -32.557   2.814  10.297  1.00  0.00    +0.278 C 
ENDBRANCH   5  14
ENDBRANCH   1   4
BRANCH   2  16
ATOM     16  C   UNL     1     -36.288   5.751   9.587  1.00  0.00    +0.331 C 
ATOM     17  O   UNL     1     -37.022   6.650   9.214  1.00  0.00    -0.247 OA
BRANCH  16  18
ATOM     18  O   UNL     1     -35.701   5.786  10.791  1.00  0.00    -0.478 OA
ATOM     19  H   UNL     1     -34.758   5.946  10.590  1.00  0.00    +0.297 HD
ENDBRANCH  16  18
ENDBRANCH   2  16
TORSDOF 4
ENDMDL
MODEL 4
REMARK VINA RESULT:    -7.696      5.464      8.042
REMARK INTER + INTRA:          -9.868
REMARK INTER:                  -9.473
REMARK INTRA:                  -0.395
REMARK UNBOUND:                -0.597
REMARK SMILES COc1ccc2ccccc2c1C=C(C)C(=O)O
REMARK SMILES IDX 13 1 14 2 15 3 12 4 3 5 4 6 5 7 11 8 6 9 10 10 7 11 9 12
REMARK SMILES IDX 8 13 2 14 1 15 16 16 17 17 18 18
REMARK H PARENT 18 19
ROOT
ATOM      1  C   UNL     1     -34.478   4.832   7.348  1.00  0.00    +0.023 C 
ATOM      2  C   UNL     1     -33.999   5.759   6.496  1.00  0.00    +0.035 C 
ATOM      3  C   UNL     1     -33.882   5.490   5.025  1.00  0.00    +0.052 C 
ENDROOT
BRANCH   1   4
ATOM      4  C   UNL     1     -34.602   4.951   8.817  1.00  0.00    +0.025 A 
ATOM      5  C   UNL     1     -33.457   4.681   9.604  1.00  0.00    +0.126 A 
ATOM      6  C   UNL     1     -33.540   4.774  10.993  1.00  0.00    +0.048 A 
ATOM      7  C   UNL     1     -34.743   5.125  11.604  1.00  0.00    +0.012 A 
ATOM      8  C   UNL     1     -35.832   5.331   9.433  1.00  0.00    -0.007 A 
ATOM      9  C   UNL     1     -35.888   5.406  10.846  1.00  0.00    -0.018 A 
ATOM     10  C   UNL     1     -37.014   5.650   8.719  1.00  0.00    +0.009 A 
ATOM     11  C   UNL     1     -37.084   5.769  11.488  1.00  0.00    +0.009 A 
ATOM     12  C   UNL     1     -38.197   6.009   9.370  1.00  0.00    +0.001 A 
ATOM     13  C   UNL     1     -38.231   6.065  10.757  1.00  0.00    +0.001 A 
BRANCH   5  14
ATOM     14  O   UNL     1     -32.306   4.362   8.923  1.00  0.00    -0.496 OA
ATOM     15  C   UNL     1     -31.211   5.259   9.046  1.00  0.00    +0.278 C 
ENDBRANCH   5  14
ENDBRANCH   1   4
BRANCH   2  16
ATOM     16  C   UNL     1     -33.506   7.093   6.903  1.00  0.00    +0.331 C 
ATOM     17  O   UNL     1     -32.424   7.560   6.592  1.00  0.00    -0.247 OA
BRANCH  16  18
ATOM     18  O   UNL     1     -34.402   7.813   7.592  1.00  0.00    -0.478 OA
ATOM     19  H   UNL     1     -34.844   7.156   8.164  1.00  0.00    +0.297 HD
ENDBRANCH  16  18
ENDBRANCH   2  16
TORSDOF 4
ENDMDL
MODEL 5
REMARK VINA RESULT:    -7.462      6.651      9.381
REMARK INTER + INTRA:          -9.586
REMARK INTER:                  -8.955
REMARK INTRA:                  -0.631
REMARK UNBOUND:                -0.597
REMARK SMILES COc1ccc2ccccc2c1C=C(C)C(=O)O
REMARK SMILES IDX 13 1 14 2 15 3 12 4 3 5 4 6 5 7 11 8 6 9 10 10 7 11 9 12
REMARK SMILES IDX 8 13 2 14 1 15 16 16 17 17 18 18
REMARK H PARENT 18 19
ROOT
ATOM      1  C   UNL     1     -34.019   3.726  11.402  1.00  0.00    +0.023 C 
ATOM      2  C   UNL     1     -33.816   2.394  11.420  1.00  0.00    +0.035 C 
ATOM      3  C   UNL     1     -33.176   1.711  12.592  1.00  0.00    +0.052 C 
ENDROOT
BRANCH   1   4
ATOM      4  C   UNL     1     -34.593   4.526  10.298  1.00  0.00    +0.025 A 
ATOM      5  C   UNL     1     -33.720   4.971   9.278  1.00  0.00    +0.126 A 
ATOM      6  C   UNL     1     -34.225   5.736   8.226  1.00  0.00    +0.048 A 
ATOM      7  C   UNL     1     -35.579   6.064   8.182  1.00  0.00    +0.012 A 
ATOM      8  C   UNL     1     -35.984   4.839  10.250  1.00  0.00    -0.007 A 
ATOM      9  C   UNL     1     -36.465   5.627   9.175  1.00  0.00    -0.018 A 
ATOM     10  C   UNL     1     -36.932   4.405  11.212  1.00  0.00    +0.009 A 
ATOM     11  C   UNL     1     -37.828   5.963   9.099  1.00  0.00    +0.009 A 
ATOM     12  C   UNL     1     -38.283   4.747  11.124  1.00  0.00    +0.001 A 
ATOM     13  C   UNL     1     -38.730   5.529  10.068  1.00  0.00    +0.001 A 
BRANCH   5  14
ATOM     14  O   UNL     1     -32.404   4.588   9.386  1.00  0.00    -0.496 OA
ATOM     15  C   UNL     1     -31.421   5.516   8.948  1.00  0.00    +0.278 C 
ENDBRANCH   5  14
ENDBRANCH   1   4
BRANCH   2  16
ATOM     16  C   UNL     1     -34.148   1.483  10.302  1.00  0.00    +0.331 C 
ATOM     17  O   UNL     1     -33.368   1.136   9.432  1.00  0.00    -0.247 OA
BRANCH  16  18
ATOM     18  O   UNL     1     -35.389   0.980  10.366  1.00  0.00    -0.478 OA
ATOM     19  H   UNL     1     -35.405   0.497  11.214  1.00  0.00    +0.297 HD
ENDBRANCH  16  18
ENDBRANCH   2  16
TORSDOF 4
ENDMDL
MODEL 6
REMARK VINA RESULT:    -7.307      5.866      8.470
REMARK INTER + INTRA:          -9.400
REMARK INTER:                  -8.712
REMARK INTRA:                  -0.688
REMARK UNBOUND:                -0.597
REMARK SMILES COc1ccc2ccccc2c1C=C(C)C(=O)O
REMARK SMILES IDX 13 1 14 2 15 3 12 4 3 5 4 6 5 7 11 8 6 9 10 10 7 11 9 12
REMARK SMILES IDX 8 13 2 14 1 15 16 16 17 17 18 18
REMARK H PARENT 18 19
ROOT
ATOM      1  C   UNL     1     -34.821   4.679   7.438  1.00  0.00    +0.023 C 
ATOM      2  C   UNL     1     -34.151   5.614   6.737  1.00  0.00    +0.035 C 
ATOM      3  C   UNL     1     -34.069   5.567   5.239  1.00  0.00    +0.052 C 
ENDROOT
BRANCH   1   4
ATOM      4  C   UNL     1     -34.941   4.584   8.909  1.00  0.00    +0.025 A 
ATOM      5  C   UNL     1     -35.894   5.409   9.552  1.00  0.00    +0.126 A 
ATOM      6  C   UNL     1     -36.028   5.353  10.939  1.00  0.00    +0.048 A 
ATOM      7  C   UNL     1     -35.224   4.494  11.689  1.00  0.00    +0.012 A 
ATOM      8  C   UNL     1     -34.130   3.687   9.666  1.00  0.00    -0.007 A 
ATOM      9  C   UNL     1     -34.281   3.660  11.074  1.00  0.00    -0.018 A 
ATOM     10  C   UNL     1     -33.177   2.804   9.099  1.00  0.00    +0.009 A 
ATOM     11  C   UNL     1     -33.493   2.796  11.854  1.00  0.00    +0.009 A 
ATOM     12  C   UNL     1     -32.400   1.950   9.886  1.00  0.00    +0.001 A 
ATOM     13  C   UNL     1     -32.557   1.949  11.265  1.00  0.00    +0.001 A 
BRANCH   5  14
ATOM     14  O   UNL     1     -36.659   6.212   8.739  1.00  0.00    -0.496 OA
ATOM     15  C   UNL     1     -38.035   6.341   9.067  1.00  0.00    +0.278 C 
ENDBRANCH   5  14
ENDBRANCH   1   4
BRANCH   2  16
ATOM     16  C   UNL     1     -33.404   6.738   7.343  1.00  0.00    +0.331 C 
ATOM     17  O   UNL     1     -32.196   6.762   7.508  1.00  0.00    -0.247 OA
BRANCH  16  18
ATOM     18  O   UNL     1     -34.166   7.802   7.630  1.00  0.00    -0.478 OA
ATOM     19  H   UNL     1     -34.433   7.659   8.559  1.00  0.00    +0.297 HD
ENDBRANCH  16  18
ENDBRANCH   2  16
TORSDOF 4
ENDMDL
MODEL 7
REMARK VINA RESULT:    -7.273      6.558      9.339
REMARK INTER + INTRA:          -9.359
REMARK INTER:                  -8.772
REMARK INTRA:                  -0.587
REMARK UNBOUND:                -0.597
REMARK SMILES COc1ccc2ccccc2c1C=C(C)C(=O)O
REMARK SMILES IDX 13 1 14 2 15 3 12 4 3 5 4 6 5 7 11 8 6 9 10 10 7 11 9 12
REMARK SMILES IDX 8 13 2 14 1 15 16 16 17 17 18 18
REMARK H PARENT 18 19
ROOT
ATOM      1  C   UNL     1     -33.894   3.400  11.276  1.00  0.00    +0.023 C 
ATOM      2  C   UNL     1     -33.458   2.126  11.238  1.00  0.00    +0.035 C 
ATOM      3  C   UNL     1     -32.897   1.450  12.454  1.00  0.00    +0.052 C 
ENDROOT
BRANCH   1   4
ATOM      4  C   UNL     1     -34.423   4.195  10.146  1.00  0.00    +0.025 A 
ATOM      5  C   UNL     1     -35.812   4.130   9.882  1.00  0.00    +0.126 A 
ATOM      6  C   UNL     1     -36.345   4.858   8.819  1.00  0.00    +0.048 A 
ATOM      7  C   UNL     1     -35.515   5.642   8.017  1.00  0.00    +0.012 A 
ATOM      8  C   UNL     1     -33.570   5.010   9.344  1.00  0.00    -0.007 A 
ATOM      9  C   UNL     1     -34.139   5.730   8.265  1.00  0.00    -0.018 A 
ATOM     10  C   UNL     1     -32.177   5.158   9.560  1.00  0.00    +0.009 A 
ATOM     11  C   UNL     1     -33.328   6.537   7.448  1.00  0.00    +0.009 A 
ATOM     12  C   UNL     1     -31.383   5.963   8.740  1.00  0.00    +0.001 A 
ATOM     13  C   UNL     1     -31.960   6.651   7.681  1.00  0.00    +0.001 A 
BRANCH   5  14
ATOM     14  O   UNL     1     -36.562   3.351  10.731  1.00  0.00    -0.496 OA
ATOM     15  C   UNL     1     -37.870   3.810  11.046  1.00  0.00    +0.278 C 
ENDBRANCH   5  14
ENDBRANCH   1   4
BRANCH   2  16
ATOM     16  C   UNL     1     -33.440   1.284  10.022  1.00  0.00    +0.331 C 
ATOM     17  O   UNL     1     -32.434   0.822   9.510  1.00  0.00    -0.247 OA
BRANCH  16  18
ATOM     18  O   UNL     1     -34.660   0.983   9.555  1.00  0.00    -0.478 OA
ATOM     19  H   UNL     1     -34.482   0.455   8.752  1.00  0.00    +0.297 HD
ENDBRANCH  16  18
ENDBRANCH   2  16
TORSDOF 4
ENDMDL
MODEL 8
REMARK VINA RESULT:    -6.962      6.394      9.714
REMARK INTER + INTRA:          -8.984
REMARK INTER:                  -8.370
REMARK INTRA:                  -0.614
REMARK UNBOUND:                -0.597
REMARK SMILES COc1ccc2ccccc2c1C=C(C)C(=O)O
REMARK SMILES IDX 13 1 14 2 15 3 12 4 3 5 4 6 5 7 11 8 6 9 10 10 7 11 9 12
REMARK SMILES IDX 8 13 2 14 1 15 16 16 17 17 18 18
REMARK H PARENT 18 19
ROOT
ATOM      1  C   UNL     1     -36.452   4.289   8.822  1.00  0.00    +0.023 C 
ATOM      2  C   UNL     1     -37.402   4.984   9.478  1.00  0.00    +0.035 C 
ATOM      3  C   UNL     1     -38.859   4.820   9.158  1.00  0.00    +0.052 C 
ENDROOT
BRANCH   1   4
ATOM      4  C   UNL     1     -34.988   4.389   9.006  1.00  0.00    +0.025 A 
ATOM      5  C   UNL     1     -34.388   3.584  10.003  1.00  0.00    +0.126 A 
ATOM      6  C   UNL     1     -33.011   3.659  10.211  1.00  0.00    +0.048 A 
ATOM      7  C   UNL     1     -32.230   4.525   9.445  1.00  0.00    +0.012 A 
ATOM      8  C   UNL     1     -34.194   5.262   8.203  1.00  0.00    -0.007 A 
ATOM      9  C   UNL     1     -32.799   5.324   8.445  1.00  0.00    -0.018 A 
ATOM     10  C   UNL     1     -34.709   6.075   7.163  1.00  0.00    +0.009 A 
ATOM     11  C   UNL     1     -31.987   6.179   7.682  1.00  0.00    +0.009 A 
ATOM     12  C   UNL     1     -33.889   6.921   6.412  1.00  0.00    +0.001 A 
ATOM     13  C   UNL     1     -32.527   6.974   6.674  1.00  0.00    +0.001 A 
BRANCH   5  14
ATOM     14  O   UNL     1     -35.224   2.744  10.699  1.00  0.00    -0.496 OA
ATOM     15  C   UNL     1     -34.619   1.683  11.425  1.00  0.00    +0.278 C 
ENDBRANCH   5  14
ENDBRANCH   1   4
BRANCH   2  16
ATOM     16  C   UNL     1     -37.127   5.990  10.527  1.00  0.00    +0.331 C 
ATOM     17  O   UNL     1     -37.226   5.790  11.725  1.00  0.00    -0.247 OA
BRANCH  16  18
ATOM     18  O   UNL     1     -36.663   7.154  10.051  1.00  0.00    -0.478 OA
ATOM     19  H   UNL     1     -36.286   7.597  10.836  1.00  0.00    +0.297 HD
ENDBRANCH  16  18
ENDBRANCH   2  16
TORSDOF 4
ENDMDL
MODEL 9
REMARK VINA RESULT:    -6.915      6.783      9.593
REMARK INTER + INTRA:          -8.928
REMARK INTER:                  -8.205
REMARK INTRA:                  -0.723
REMARK UNBOUND:                -0.597
REMARK SMILES COc1ccc2ccccc2c1C=C(C)C(=O)O
REMARK SMILES IDX 13 1 14 2 15 3 12 4 3 5 4 6 5 7 11 8 6 9 10 10 7 11 9 12
REMARK SMILES IDX 8 13 2 14 1 15 16 16 17 17 18 18
REMARK H PARENT 18 19
ROOT
ATOM      1  C   UNL     1     -36.434   4.248   8.685  1.00  0.00    +0.023 C 
ATOM      2  C   UNL     1     -37.356   4.972   9.349  1.00  0.00    +0.035 C 
ATOM      3  C   UNL     1     -38.806   4.941   8.966  1.00  0.00    +0.052 C 
ENDROOT
BRANCH   1   4
ATOM      4  C   UNL     1     -34.975   4.223   8.929  1.00  0.00    +0.025 A 
ATOM      5  C   UNL     1     -34.182   5.217   8.309  1.00  0.00    +0.126 A 
ATOM      6  C   UNL     1     -32.802   5.219   8.509  1.00  0.00    +0.048 A 
ATOM      7  C   UNL     1     -32.206   4.245   9.309  1.00  0.00    +0.012 A 
ATOM      8  C   UNL     1     -34.377   3.236   9.767  1.00  0.00    -0.007 A 
ATOM      9  C   UNL     1     -32.971   3.257   9.942  1.00  0.00    -0.018 A 
ATOM     10  C   UNL     1     -35.101   2.227  10.451  1.00  0.00    +0.009 A 
ATOM     11  C   UNL     1     -32.345   2.295  10.753  1.00  0.00    +0.009 A 
ATOM     12  C   UNL     1     -34.465   1.277  11.254  1.00  0.00    +0.001 A 
ATOM     13  C   UNL     1     -33.086   1.310  11.402  1.00  0.00    +0.001 A 
BRANCH   5  14
ATOM     14  O   UNL     1     -34.849   6.151   7.552  1.00  0.00    -0.496 OA
ATOM     15  C   UNL     1     -34.340   6.415   6.252  1.00  0.00    +0.278 C 
ENDBRANCH   5  14
ENDBRANCH   1   4
BRANCH   2  16
ATOM     16  C   UNL     1     -37.051   5.888  10.471  1.00  0.00    +0.331 C 
ATOM     17  O   UNL     1     -37.128   5.592  11.651  1.00  0.00    -0.247 OA
BRANCH  16  18
ATOM     18  O   UNL     1     -36.584   7.083  10.081  1.00  0.00    -0.478 OA
ATOM     19  H   UNL     1     -36.866   7.154   9.148  1.00  0.00    +0.297 HD
ENDBRANCH  16  18
ENDBRANCH   2  16
TORSDOF 4
ENDMDL
