MODEL 1
REMARK VINA RESULT:   -10.345      0.000      0.000
REMARK INTER + INTRA:         -12.764
REMARK INTER:                 -12.159
REMARK INTRA:                  -0.605
REMARK UNBOUND:                -0.605
REMARK SMILES Cc1nc(Nc2cc(Cl)ccc2Cl)c2cnn(-c3ccc(Cl)cc3)c2n1
REMARK SMILES IDX 1 1 2 2 3 3 4 4 14 5 15 6 16 7 17 8 25 9 26 10 5 11 6 13
REMARK SMILES IDX 12 14 7 15 11 16 8 17 10 18 13 19 9 20 18 21 19 22 24 23
REMARK SMILES IDX 20 24 23 25 21 26 22 27
REMARK H PARENT 5 12
ROOT
ATOM      1  C   UNL     1     -23.151   2.494  10.742  1.00  0.00    +0.090 C 
ATOM      2  C   UNL     1     -24.621   2.601  10.467  1.00  0.00    +0.130 A 
ATOM      3  N   UNL     1     -25.402   1.612  10.951  1.00  0.00    -0.215 NA
ATOM      4  C   UNL     1     -26.730   1.624  10.695  1.00  0.00    +0.145 A 
ATOM      5  C   UNL     1     -27.250   2.711   9.984  1.00  0.00    +0.082 A 
ATOM      6  C   UNL     1     -28.511   3.185   9.590  1.00  0.00    +0.150 A 
ATOM      7  N   UNL     1     -28.451   4.321   8.898  1.00  0.00    -0.174 NA
ATOM      8  N   UNL     1     -27.117   4.627   8.852  1.00  0.00    -0.215 N 
ATOM      9  C   UNL     1     -26.359   3.670   9.529  1.00  0.00    +0.168 A 
ATOM     10  N   UNL     1     -25.026   3.646   9.729  1.00  0.00    -0.213 NA
ENDROOT
BRANCH   4  11
ATOM     11  N   UNL     1     -27.479   0.577  11.240  1.00  0.00    -0.338 N 
ATOM     12  H   UNL     1     -27.518  -0.188  10.568  1.00  0.00    +0.168 HD
BRANCH  11  13
ATOM     13  C   UNL     1     -28.609   0.584  12.089  1.00  0.00    +0.060 A 
ATOM     14  C   UNL     1     -29.864   0.174  11.587  1.00  0.00    +0.064 A 
ATOM     15  C   UNL     1     -28.534   0.945  13.441  1.00  0.00    +0.048 A 
ATOM     16  C   UNL     1     -30.996   0.124  12.406  1.00  0.00    +0.024 A 
ATOM     17  C   UNL     1     -29.668   0.895  14.258  1.00  0.00    +0.043 A 
ATOM     18  C   UNL     1     -30.896   0.484  13.748  1.00  0.00    +0.022 A 
ATOM     19 Cl   UNL     1     -30.047  -0.279   9.925  1.00  0.00    -0.082 Cl
ATOM     20 Cl   UNL     1     -29.545   1.351  15.913  1.00  0.00    -0.084 Cl
ENDBRANCH  11  13
ENDBRANCH   4  11
BRANCH   8  21
ATOM     21  C   UNL     1     -26.692   5.810   8.171  1.00  0.00    +0.067 A 
ATOM     22  C   UNL     1     -27.594   6.882   8.033  1.00  0.00    +0.030 A 
ATOM     23  C   UNL     1     -25.404   5.937   7.633  1.00  0.00    +0.030 A 
ATOM     24  C   UNL     1     -27.213   8.054   7.373  1.00  0.00    +0.023 A 
ATOM     25  C   UNL     1     -25.027   7.114   6.973  1.00  0.00    +0.023 A 
ATOM     26  C   UNL     1     -25.931   8.165   6.845  1.00  0.00    +0.041 A 
ATOM     27 Cl   UNL     1     -25.459   9.605   6.031  1.00  0.00    -0.084 Cl
ENDBRANCH   8  21
TORSDOF 3
ENDMDL
MODEL 2
REMARK VINA RESULT:    -9.975      2.869      4.806
REMARK INTER + INTRA:         -12.330
REMARK INTER:                 -11.940
REMARK INTRA:                  -0.390
REMARK UNBOUND:                -0.605
REMARK SMILES Cc1nc(Nc2cc(Cl)ccc2Cl)c2cnn(-c3ccc(Cl)cc3)c2n1
REMARK SMILES IDX 1 1 2 2 3 3 4 4 14 5 15 6 16 7 17 8 25 9 26 10 5 11 6 13
REMARK SMILES IDX 12 14 7 15 11 16 8 17 10 18 13 19 9 20 18 21 19 22 24 23
REMARK SMILES IDX 20 24 23 25 21 26 22 27
REMARK H PARENT 5 12
ROOT
ATOM      1  C   UNL     1     -30.148   4.632   9.067  1.00  0.00    +0.090 C 
ATOM      2  C   UNL     1     -28.725   5.017   8.796  1.00  0.00    +0.130 A 
ATOM      3  N   UNL     1     -27.778   4.119   9.137  1.00  0.00    -0.215 NA
ATOM      4  C   UNL     1     -26.471   4.426   8.964  1.00  0.00    +0.145 A 
ATOM      5  C   UNL     1     -26.161   5.655   8.370  1.00  0.00    +0.082 A 
ATOM      6  C   UNL     1     -25.016   6.329   7.920  1.00  0.00    +0.150 A 
ATOM      7  N   UNL     1     -25.282   7.531   7.411  1.00  0.00    -0.174 NA
ATOM      8  N   UNL     1     -26.643   7.649   7.499  1.00  0.00    -0.215 N 
ATOM      9  C   UNL     1     -27.211   6.506   8.063  1.00  0.00    +0.168 A 
ATOM     10  N   UNL     1     -28.515   6.237   8.278  1.00  0.00    -0.213 NA
ENDROOT
BRANCH   4  11
ATOM     11  N   UNL     1     -25.546   3.442   9.324  1.00  0.00    -0.338 N 
ATOM     12  H   UNL     1     -24.820   3.393   8.611  1.00  0.00    +0.168 HD
BRANCH  11  13
ATOM     13  C   UNL     1     -25.714   2.205   9.986  1.00  0.00    +0.060 A 
ATOM     14  C   UNL     1     -26.005   2.184  11.368  1.00  0.00    +0.064 A 
ATOM     15  C   UNL     1     -25.646   0.976   9.315  1.00  0.00    +0.048 A 
ATOM     16  C   UNL     1     -26.222   0.982  12.049  1.00  0.00    +0.024 A 
ATOM     17  C   UNL     1     -25.862  -0.225   9.999  1.00  0.00    +0.043 A 
ATOM     18  C   UNL     1     -26.153  -0.227  11.360  1.00  0.00    +0.022 A 
ATOM     19 Cl   UNL     1     -26.098   3.656  12.275  1.00  0.00    -0.082 Cl
ATOM     20 Cl   UNL     1     -25.766  -1.717   9.149  1.00  0.00    -0.084 Cl
ENDBRANCH  11  13
ENDBRANCH   4  11
BRANCH   8  21
ATOM     21  C   UNL     1     -27.275   8.844   7.030  1.00  0.00    +0.067 A 
ATOM     22  C   UNL     1     -26.690   9.555   5.966  1.00  0.00    +0.030 A 
ATOM     23  C   UNL     1     -28.459   9.331   7.599  1.00  0.00    +0.030 A 
ATOM     24  C   UNL     1     -27.280  10.727   5.482  1.00  0.00    +0.023 A 
ATOM     25  C   UNL     1     -29.047  10.506   7.111  1.00  0.00    +0.023 A 
ATOM     26  C   UNL     1     -28.456  11.197   6.057  1.00  0.00    +0.041 A 
ATOM     27 Cl   UNL     1     -29.183  12.639   5.465  1.00  0.00    -0.084 Cl
ENDBRANCH   8  21
TORSDOF 3
ENDMDL
MODEL 3
REMARK VINA RESULT:    -9.956      5.811      7.549
REMARK INTER + INTRA:         -12.307
REMARK INTER:                 -11.792
REMARK INTRA:                  -0.515
REMARK UNBOUND:                -0.605
REMARK SMILES Cc1nc(Nc2cc(Cl)ccc2Cl)c2cnn(-c3ccc(Cl)cc3)c2n1
REMARK SMILES IDX 1 1 2 2 3 3 4 4 14 5 15 6 16 7 17 8 25 9 26 10 5 11 6 13
REMARK SMILES IDX 12 14 7 15 11 16 8 17 10 18 13 19 9 20 18 21 19 22 24 23
REMARK SMILES IDX 20 24 23 25 21 26 22 27
REMARK H PARENT 5 12
ROOT
ATOM      1  C   UNL     1     -34.558   6.599   4.598  1.00  0.00    +0.090 C 
ATOM      2  C   UNL     1     -33.826   6.299   5.871  1.00  0.00    +0.130 A 
ATOM      3  N   UNL     1     -34.350   5.338   6.660  1.00  0.00    -0.215 NA
ATOM      4  C   UNL     1     -33.764   5.054   7.846  1.00  0.00    +0.145 A 
ATOM      5  C   UNL     1     -32.588   5.737   8.175  1.00  0.00    +0.082 A 
ATOM      6  C   UNL     1     -31.623   5.708   9.194  1.00  0.00    +0.150 A 
ATOM      7  N   UNL     1     -30.658   6.611   9.026  1.00  0.00    -0.174 NA
ATOM      8  N   UNL     1     -30.973   7.239   7.851  1.00  0.00    -0.215 N 
ATOM      9  C   UNL     1     -32.138   6.709   7.296  1.00  0.00    +0.168 A 
ATOM     10  N   UNL     1     -32.739   7.041   6.135  1.00  0.00    -0.213 NA
ENDROOT
BRANCH   4  11
ATOM     11  N   UNL     1     -34.351   4.036   8.604  1.00  0.00    -0.338 N 
ATOM     12  H   UNL     1     -34.073   3.135   8.220  1.00  0.00    +0.168 HD
BRANCH  11  13
ATOM     13  C   UNL     1     -35.605   3.963   9.251  1.00  0.00    +0.060 A 
ATOM     14  C   UNL     1     -35.921   2.836  10.040  1.00  0.00    +0.064 A 
ATOM     15  C   UNL     1     -36.552   4.995   9.180  1.00  0.00    +0.048 A 
ATOM     16  C   UNL     1     -37.133   2.746  10.732  1.00  0.00    +0.024 A 
ATOM     17  C   UNL     1     -37.763   4.902   9.872  1.00  0.00    +0.043 A 
ATOM     18  C   UNL     1     -38.056   3.786  10.649  1.00  0.00    +0.022 A 
ATOM     19 Cl   UNL     1     -34.813   1.512  10.175  1.00  0.00    -0.082 Cl
ATOM     20 Cl   UNL     1     -38.907   6.183   9.759  1.00  0.00    -0.084 Cl
ENDBRANCH  11  13
ENDBRANCH   4  11
BRANCH   8  21
ATOM     21  C   UNL     1     -30.126   8.284   7.365  1.00  0.00    +0.067 A 
ATOM     22  C   UNL     1     -30.691   9.536   7.059  1.00  0.00    +0.030 A 
ATOM     23  C   UNL     1     -28.749   8.100   7.180  1.00  0.00    +0.030 A 
ATOM     24  C   UNL     1     -29.893  10.581   6.582  1.00  0.00    +0.023 A 
ATOM     25  C   UNL     1     -27.954   9.150   6.702  1.00  0.00    +0.023 A 
ATOM     26  C   UNL     1     -28.528  10.383   6.406  1.00  0.00    +0.041 A 
ATOM     27 Cl   UNL     1     -27.544  11.665   5.817  1.00  0.00    -0.084 Cl
ENDBRANCH   8  21
TORSDOF 3
ENDMDL
MODEL 4
REMARK VINA RESULT:    -9.668      4.591      7.595
REMARK INTER + INTRA:         -11.968
REMARK INTER:                 -11.178
REMARK INTRA:                  -0.791
REMARK UNBOUND:                -0.605
REMARK SMILES Cc1nc(Nc2cc(Cl)ccc2Cl)c2cnn(-c3ccc(Cl)cc3)c2n1
REMARK SMILES IDX 1 1 2 2 3 3 4 4 14 5 15 6 16 7 17 8 25 9 26 10 5 11 6 13
REMARK SMILES IDX 12 14 7 15 11 16 8 17 10 18 13 19 9 20 18 21 19 22 24 23
REMARK SMILES IDX 20 24 23 25 21 26 22 27
REMARK H PARENT 5 12
ROOT
ATOM      1  C   UNL     1     -32.551  -1.487  11.073  1.00  0.00    +0.090 C 
ATOM      2  C   UNL     1     -32.021  -0.155  10.635  1.00  0.00    +0.130 A 
ATOM      3  N   UNL     1     -30.680  -0.033  10.553  1.00  0.00    -0.215 NA
ATOM      4  C   UNL     1     -30.137   1.158  10.211  1.00  0.00    +0.145 A 
ATOM      5  C   UNL     1     -31.007   2.207   9.892  1.00  0.00    +0.082 A 
ATOM      6  C   UNL     1     -30.913   3.521   9.410  1.00  0.00    +0.150 A 
ATOM      7  N   UNL     1     -32.098   4.115   9.276  1.00  0.00    -0.174 NA
ATOM      8  N   UNL     1     -33.006   3.163   9.653  1.00  0.00    -0.215 N 
ATOM      9  C   UNL     1     -32.368   1.976  10.015  1.00  0.00    +0.168 A 
ATOM     10  N   UNL     1     -32.924   0.811  10.405  1.00  0.00    -0.213 NA
ENDROOT
BRANCH   4  11
ATOM     11  N   UNL     1     -28.742   1.207  10.131  1.00  0.00    -0.338 N 
ATOM     12  H   UNL     1     -28.371   0.265  10.245  1.00  0.00    +0.168 HD
BRANCH  11  13
ATOM     13  C   UNL     1     -27.819   2.188  10.558  1.00  0.00    +0.060 A 
ATOM     14  C   UNL     1     -27.516   2.313  11.931  1.00  0.00    +0.064 A 
ATOM     15  C   UNL     1     -27.144   3.029   9.662  1.00  0.00    +0.048 A 
ATOM     16  C   UNL     1     -26.575   3.241  12.389  1.00  0.00    +0.024 A 
ATOM     17  C   UNL     1     -26.204   3.956  10.122  1.00  0.00    +0.043 A 
ATOM     18  C   UNL     1     -25.915   4.064  11.479  1.00  0.00    +0.022 A 
ATOM     19 Cl   UNL     1     -28.311   1.321  13.107  1.00  0.00    -0.082 Cl
ATOM     20 Cl   UNL     1     -25.398   4.979   8.997  1.00  0.00    -0.084 Cl
ENDBRANCH  11  13
ENDBRANCH   4  11
BRANCH   8  21
ATOM     21  C   UNL     1     -34.401   3.475   9.627  1.00  0.00    +0.067 A 
ATOM     22  C   UNL     1     -34.979   4.120  10.736  1.00  0.00    +0.030 A 
ATOM     23  C   UNL     1     -35.214   3.157   8.530  1.00  0.00    +0.030 A 
ATOM     24  C   UNL     1     -36.341   4.441  10.745  1.00  0.00    +0.023 A 
ATOM     25  C   UNL     1     -36.577   3.481   8.544  1.00  0.00    +0.023 A 
ATOM     26  C   UNL     1     -37.134   4.120   9.649  1.00  0.00    +0.041 A 
ATOM     27 Cl   UNL     1     -38.808   4.511   9.657  1.00  0.00    -0.084 Cl
ENDBRANCH   8  21
TORSDOF 3
ENDMDL
MODEL 5
REMARK VINA RESULT:    -9.651      4.838      6.577
REMARK INTER + INTRA:         -11.949
REMARK INTER:                 -11.285
REMARK INTRA:                  -0.664
REMARK UNBOUND:                -0.605
REMARK SMILES Cc1nc(Nc2cc(Cl)ccc2Cl)c2cnn(-c3ccc(Cl)cc3)c2n1
REMARK SMILES IDX 1 1 2 2 3 3 4 4 14 5 15 6 16 7 17 8 25 9 26 10 5 11 6 13
REMARK SMILES IDX 12 14 7 15 11 16 8 17 10 18 13 19 9 20 18 21 19 22 24 23
REMARK SMILES IDX 20 24 23 25 21 26 22 27
REMARK H PARENT 5 12
ROOT
ATOM      1  C   UNL     1     -34.524   6.606   4.553  1.00  0.00    +0.090 C 
ATOM      2  C   UNL     1     -33.800   6.306   5.831  1.00  0.00    +0.130 A 
ATOM      3  N   UNL     1     -34.333   5.350   6.620  1.00  0.00    -0.215 NA
ATOM      4  C   UNL     1     -33.755   5.067   7.810  1.00  0.00    +0.145 A 
ATOM      5  C   UNL     1     -32.576   5.745   8.143  1.00  0.00    +0.082 A 
ATOM      6  C   UNL     1     -31.617   5.715   9.167  1.00  0.00    +0.150 A 
ATOM      7  N   UNL     1     -30.646   6.611   9.001  1.00  0.00    -0.174 NA
ATOM      8  N   UNL     1     -30.952   7.237   7.822  1.00  0.00    -0.215 N 
ATOM      9  C   UNL     1     -32.118   6.711   7.263  1.00  0.00    +0.168 A 
ATOM     10  N   UNL     1     -32.710   7.043   6.098  1.00  0.00    -0.213 NA
ENDROOT
BRANCH   4  11
ATOM     11  N   UNL     1     -34.352   4.056   8.568  1.00  0.00    -0.338 N 
ATOM     12  H   UNL     1     -35.321   4.309   8.754  1.00  0.00    +0.168 HD
BRANCH  11  13
ATOM     13  C   UNL     1     -33.828   3.217   9.578  1.00  0.00    +0.060 A 
ATOM     14  C   UNL     1     -34.077   3.517  10.935  1.00  0.00    +0.064 A 
ATOM     15  C   UNL     1     -33.096   2.057   9.291  1.00  0.00    +0.048 A 
ATOM     16  C   UNL     1     -33.615   2.688  11.962  1.00  0.00    +0.024 A 
ATOM     17  C   UNL     1     -32.634   1.230  10.319  1.00  0.00    +0.043 A 
ATOM     18  C   UNL     1     -32.893   1.538  11.652  1.00  0.00    +0.022 A 
ATOM     19 Cl   UNL     1     -34.965   4.936  11.379  1.00  0.00    -0.082 Cl
ATOM     20 Cl   UNL     1     -31.733  -0.184   9.934  1.00  0.00    -0.084 Cl
ENDBRANCH  11  13
ENDBRANCH   4  11
BRANCH   8  21
ATOM     21  C   UNL     1     -30.097   8.276   7.337  1.00  0.00    +0.067 A 
ATOM     22  C   UNL     1     -30.645   9.544   7.069  1.00  0.00    +0.030 A 
ATOM     23  C   UNL     1     -28.728   8.070   7.117  1.00  0.00    +0.030 A 
ATOM     24  C   UNL     1     -29.839  10.583   6.594  1.00  0.00    +0.023 A 
ATOM     25  C   UNL     1     -27.924   9.115   6.641  1.00  0.00    +0.023 A 
ATOM     26  C   UNL     1     -28.482  10.364   6.382  1.00  0.00    +0.041 A 
ATOM     27 Cl   UNL     1     -27.488  11.639   5.796  1.00  0.00    -0.084 Cl
ENDBRANCH   8  21
TORSDOF 3
ENDMDL
MODEL 6
REMARK VINA RESULT:    -9.474      5.400      7.731
REMARK INTER + INTRA:         -11.741
REMARK INTER:                 -10.930
REMARK INTRA:                  -0.811
REMARK UNBOUND:                -0.605
REMARK SMILES Cc1nc(Nc2cc(Cl)ccc2Cl)c2cnn(-c3ccc(Cl)cc3)c2n1
REMARK SMILES IDX 1 1 2 2 3 3 4 4 14 5 15 6 16 7 17 8 25 9 26 10 5 11 6 13
REMARK SMILES IDX 12 14 7 15 11 16 8 17 10 18 13 19 9 20 18 21 19 22 24 23
REMARK SMILES IDX 20 24 23 25 21 26 22 27
REMARK H PARENT 5 12
ROOT
ATOM      1  C   UNL     1     -30.812   6.321   8.444  1.00  0.00    +0.090 C 
ATOM      2  C   UNL     1     -31.347   5.054   9.040  1.00  0.00    +0.130 A 
ATOM      3  N   UNL     1     -30.459   4.061   9.252  1.00  0.00    -0.215 NA
ATOM      4  C   UNL     1     -30.887   2.874   9.741  1.00  0.00    +0.145 A 
ATOM      5  C   UNL     1     -32.241   2.752  10.070  1.00  0.00    +0.082 A 
ATOM      6  C   UNL     1     -33.080   1.801  10.670  1.00  0.00    +0.150 A 
ATOM      7  N   UNL     1     -34.349   2.198  10.749  1.00  0.00    -0.174 NA
ATOM      8  N   UNL     1     -34.351   3.457  10.212  1.00  0.00    -0.215 N 
ATOM      9  C   UNL     1     -33.068   3.832   9.808  1.00  0.00    +0.168 A 
ATOM     10  N   UNL     1     -32.668   5.002   9.272  1.00  0.00    -0.213 NA
ENDROOT
BRANCH   4  11
ATOM     11  N   UNL     1     -29.909   1.897   9.950  1.00  0.00    -0.338 N 
ATOM     12  H   UNL     1     -30.349   0.978   9.931  1.00  0.00    +0.168 HD
BRANCH  11  13
ATOM     13  C   UNL     1     -28.744   1.901  10.749  1.00  0.00    +0.060 A 
ATOM     14  C   UNL     1     -28.801   1.410  12.072  1.00  0.00    +0.064 A 
ATOM     15  C   UNL     1     -27.501   2.340  10.270  1.00  0.00    +0.048 A 
ATOM     16  C   UNL     1     -27.660   1.356  12.880  1.00  0.00    +0.024 A 
ATOM     17  C   UNL     1     -26.363   2.285  11.080  1.00  0.00    +0.043 A 
ATOM     18  C   UNL     1     -26.436   1.793  12.379  1.00  0.00    +0.022 A 
ATOM     19 Cl   UNL     1     -30.297   0.858  12.747  1.00  0.00    -0.082 Cl
ATOM     20 Cl   UNL     1     -24.854   2.837  10.464  1.00  0.00    -0.084 Cl
ENDBRANCH  11  13
ENDBRANCH   4  11
BRANCH   8  21
ATOM     21  C   UNL     1     -35.578   4.188  10.141  1.00  0.00    +0.067 A 
ATOM     22  C   UNL     1     -35.825   5.204  11.083  1.00  0.00    +0.030 A 
ATOM     23  C   UNL     1     -36.546   3.923   9.163  1.00  0.00    +0.030 A 
ATOM     24  C   UNL     1     -37.014   5.939  11.044  1.00  0.00    +0.023 A 
ATOM     25  C   UNL     1     -37.736   4.662   9.128  1.00  0.00    +0.023 A 
ATOM     26  C   UNL     1     -37.964   5.665  10.067  1.00  0.00    +0.041 A 
ATOM     27 Cl   UNL     1     -39.429   6.565  10.017  1.00  0.00    -0.084 Cl
ENDBRANCH   8  21
TORSDOF 3
ENDMDL
MODEL 7
REMARK VINA RESULT:    -9.378      5.995     10.484
REMARK INTER + INTRA:         -11.628
REMARK INTER:                 -11.119
REMARK INTRA:                  -0.509
REMARK UNBOUND:                -0.605
REMARK SMILES Cc1nc(Nc2cc(Cl)ccc2Cl)c2cnn(-c3ccc(Cl)cc3)c2n1
REMARK SMILES IDX 1 1 2 2 3 3 4 4 14 5 15 6 16 7 17 8 25 9 26 10 5 11 6 13
REMARK SMILES IDX 12 14 7 15 11 16 8 17 10 18 13 19 9 20 18 21 19 22 24 23
REMARK SMILES IDX 20 24 23 25 21 26 22 27
REMARK H PARENT 5 12
ROOT
ATOM      1  C   UNL     1     -34.357   6.253   5.082  1.00  0.00    +0.090 C 
ATOM      2  C   UNL     1     -33.704   6.090   6.421  1.00  0.00    +0.130 A 
ATOM      3  N   UNL     1     -32.448   6.567   6.545  1.00  0.00    -0.215 NA
ATOM      4  C   UNL     1     -31.784   6.406   7.714  1.00  0.00    +0.145 A 
ATOM      5  C   UNL     1     -32.465   5.800   8.775  1.00  0.00    +0.082 A 
ATOM      6  C   UNL     1     -32.235   5.525  10.131  1.00  0.00    +0.150 A 
ATOM      7  N   UNL     1     -33.254   4.898  10.718  1.00  0.00    -0.174 NA
ATOM      8  N   UNL     1     -34.198   4.778   9.734  1.00  0.00    -0.215 N 
ATOM      9  C   UNL     1     -33.751   5.341   8.538  1.00  0.00    +0.168 A 
ATOM     10  N   UNL     1     -34.407   5.445   7.365  1.00  0.00    -0.213 NA
ENDROOT
BRANCH   4  11
ATOM     11  N   UNL     1     -30.494   6.940   7.775  1.00  0.00    -0.338 N 
ATOM     12  H   UNL     1     -30.006   6.537   8.575  1.00  0.00    +0.168 HD
BRANCH  11  13
ATOM     13  C   UNL     1     -30.002   8.226   7.458  1.00  0.00    +0.060 A 
ATOM     14  C   UNL     1     -28.609   8.463   7.461  1.00  0.00    +0.064 A 
ATOM     15  C   UNL     1     -30.843   9.286   7.092  1.00  0.00    +0.048 A 
ATOM     16  C   UNL     1     -28.081   9.709   7.110  1.00  0.00    +0.024 A 
ATOM     17  C   UNL     1     -30.312  10.531   6.742  1.00  0.00    +0.043 A 
ATOM     18  C   UNL     1     -28.937  10.747   6.746  1.00  0.00    +0.022 A 
ATOM     19 Cl   UNL     1     -27.500   7.212   7.911  1.00  0.00    -0.082 Cl
ATOM     20 Cl   UNL     1     -31.372  11.814   6.303  1.00  0.00    -0.084 Cl
ENDBRANCH  11  13
ENDBRANCH   4  11
BRANCH   8  21
ATOM     21  C   UNL     1     -35.443   4.139  10.031  1.00  0.00    +0.067 A 
ATOM     22  C   UNL     1     -35.466   2.748  10.238  1.00  0.00    +0.030 A 
ATOM     23  C   UNL     1     -36.643   4.856  10.121  1.00  0.00    +0.030 A 
ATOM     24  C   UNL     1     -36.665   2.090  10.531  1.00  0.00    +0.023 A 
ATOM     25  C   UNL     1     -37.842   4.193  10.414  1.00  0.00    +0.023 A 
ATOM     26  C   UNL     1     -37.848   2.816  10.617  1.00  0.00    +0.041 A 
ATOM     27 Cl   UNL     1     -39.325   2.011  10.975  1.00  0.00    -0.084 Cl
ENDBRANCH   8  21
TORSDOF 3
ENDMDL
MODEL 8
REMARK VINA RESULT:    -9.167      6.404     10.607
REMARK INTER + INTRA:         -11.381
REMARK INTER:                 -11.347
REMARK INTRA:                  -0.033
REMARK UNBOUND:                -0.605
REMARK SMILES Cc1nc(Nc2cc(Cl)ccc2Cl)c2cnn(-c3ccc(Cl)cc3)c2n1
REMARK SMILES IDX 1 1 2 2 3 3 4 4 14 5 15 6 16 7 17 8 25 9 26 10 5 11 6 13
REMARK SMILES IDX 12 14 7 15 11 16 8 17 10 18 13 19 9 20 18 21 19 22 24 23
REMARK SMILES IDX 20 24 23 25 21 26 22 27
REMARK H PARENT 5 12
ROOT
ATOM      1  C   UNL     1     -34.212   6.599   4.698  1.00  0.00    +0.090 C 
ATOM      2  C   UNL     1     -33.489   6.519   6.008  1.00  0.00    +0.130 A 
ATOM      3  N   UNL     1     -32.297   7.146   6.083  1.00  0.00    -0.215 NA
ATOM      4  C   UNL     1     -31.571   7.070   7.222  1.00  0.00    +0.145 A 
ATOM      5  C   UNL     1     -32.128   6.386   8.308  1.00  0.00    +0.082 A 
ATOM      6  C   UNL     1     -31.811   6.143   9.653  1.00  0.00    +0.150 A 
ATOM      7  N   UNL     1     -32.720   5.397  10.279  1.00  0.00    -0.174 NA
ATOM      8  N   UNL     1     -33.682   5.160   9.334  1.00  0.00    -0.215 N 
ATOM      9  C   UNL     1     -33.357   5.773   8.123  1.00  0.00    +0.168 A 
ATOM     10  N   UNL     1     -34.069   5.794   6.978  1.00  0.00    -0.213 NA
ENDROOT
BRANCH   4  11
ATOM     11  N   UNL     1     -30.354   7.757   7.233  1.00  0.00    -0.338 N 
ATOM     12  H   UNL     1     -29.774   7.392   7.987  1.00  0.00    +0.168 HD
BRANCH  11  13
ATOM     13  C   UNL     1     -30.043   9.105   6.941  1.00  0.00    +0.060 A 
ATOM     14  C   UNL     1     -30.964  10.123   7.272  1.00  0.00    +0.064 A 
ATOM     15  C   UNL     1     -28.824   9.490   6.365  1.00  0.00    +0.048 A 
ATOM     16  C   UNL     1     -30.675  11.471   7.040  1.00  0.00    +0.024 A 
ATOM     17  C   UNL     1     -28.538  10.839   6.133  1.00  0.00    +0.043 A 
ATOM     18  C   UNL     1     -29.455  11.830   6.471  1.00  0.00    +0.022 A 
ATOM     19 Cl   UNL     1     -32.497   9.734   7.977  1.00  0.00    -0.082 Cl
ATOM     20 Cl   UNL     1     -27.035  11.279   5.420  1.00  0.00    -0.084 Cl
ENDBRANCH  11  13
ENDBRANCH   4  11
BRANCH   8  21
ATOM     21  C   UNL     1     -34.826   4.375   9.679  1.00  0.00    +0.067 A 
ATOM     22  C   UNL     1     -35.669   4.813  10.718  1.00  0.00    +0.030 A 
ATOM     23  C   UNL     1     -35.135   3.179   9.017  1.00  0.00    +0.030 A 
ATOM     24  C   UNL     1     -36.796   4.071  11.083  1.00  0.00    +0.023 A 
ATOM     25  C   UNL     1     -36.266   2.439   9.386  1.00  0.00    +0.023 A 
ATOM     26  C   UNL     1     -37.090   2.887  10.416  1.00  0.00    +0.041 A 
ATOM     27 Cl   UNL     1     -38.475   1.970  10.863  1.00  0.00    -0.084 Cl
ENDBRANCH   8  21
TORSDOF 3
ENDMDL
MODEL 9
REMARK VINA RESULT:    -9.015      5.480      8.042
REMARK INTER + INTRA:         -11.201
REMARK INTER:                 -10.617
REMARK INTRA:                  -0.584
REMARK UNBOUND:                -0.605
REMARK SMILES Cc1nc(Nc2cc(Cl)ccc2Cl)c2cnn(-c3ccc(Cl)cc3)c2n1
REMARK SMILES IDX 1 1 2 2 3 3 4 4 14 5 15 6 16 7 17 8 25 9 26 10 5 11 6 13
REMARK SMILES IDX 12 14 7 15 11 16 8 17 10 18 13 19 9 20 18 21 19 22 24 23
REMARK SMILES IDX 20 24 23 25 21 26 22 27
REMARK H PARENT 5 12
ROOT
ATOM      1  C   UNL     1     -31.285   6.189   8.562  1.00  0.00    +0.090 C 
ATOM      2  C   UNL     1     -31.961   4.892   8.887  1.00  0.00    +0.130 A 
ATOM      3  N   UNL     1     -33.301   4.850   8.735  1.00  0.00    -0.215 NA
ATOM      4  C   UNL     1     -33.976   3.724   9.058  1.00  0.00    +0.145 A 
ATOM      5  C   UNL     1     -33.235   2.615   9.483  1.00  0.00    +0.082 A 
ATOM      6  C   UNL     1     -33.475   1.272   9.811  1.00  0.00    +0.150 A 
ATOM      7  N   UNL     1     -32.372   0.616  10.169  1.00  0.00    -0.174 NA
ATOM      8  N   UNL     1     -31.368   1.539  10.050  1.00  0.00    -0.215 N 
ATOM      9  C   UNL     1     -31.864   2.767   9.609  1.00  0.00    +0.168 A 
ATOM     10  N   UNL     1     -31.181   3.898   9.342  1.00  0.00    -0.213 NA
ENDROOT
BRANCH   4  11
ATOM     11  N   UNL     1     -35.360   3.748   8.860  1.00  0.00    -0.338 N 
ATOM     12  H   UNL     1     -35.579   4.431   8.136  1.00  0.00    +0.168 HD
BRANCH  11  13
ATOM     13  C   UNL     1     -36.433   3.582   9.764  1.00  0.00    +0.060 A 
ATOM     14  C   UNL     1     -37.118   4.717  10.252  1.00  0.00    +0.064 A 
ATOM     15  C   UNL     1     -36.886   2.321  10.175  1.00  0.00    +0.048 A 
ATOM     16  C   UNL     1     -38.213   4.593  11.113  1.00  0.00    +0.024 A 
ATOM     17  C   UNL     1     -37.981   2.200  11.037  1.00  0.00    +0.043 A 
ATOM     18  C   UNL     1     -38.647   3.329  11.504  1.00  0.00    +0.022 A 
ATOM     19 Cl   UNL     1     -36.619   6.313   9.804  1.00  0.00    -0.082 Cl
ATOM     20 Cl   UNL     1     -38.508   0.637  11.527  1.00  0.00    -0.084 Cl
ENDBRANCH  11  13
ENDBRANCH   4  11
BRANCH   8  21
ATOM     21  C   UNL     1     -30.025   1.158  10.362  1.00  0.00    +0.067 A 
ATOM     22  C   UNL     1     -29.592  -0.144  10.048  1.00  0.00    +0.030 A 
ATOM     23  C   UNL     1     -29.125   2.040  10.975  1.00  0.00    +0.030 A 
ATOM     24  C   UNL     1     -28.286  -0.551  10.339  1.00  0.00    +0.023 A 
ATOM     25  C   UNL     1     -27.817   1.628  11.264  1.00  0.00    +0.023 A 
ATOM     26  C   UNL     1     -27.405   0.337  10.946  1.00  0.00    +0.041 A 
ATOM     27 Cl   UNL     1     -25.798  -0.161  11.308  1.00  0.00    -0.084 Cl
ENDBRANCH   8  21
TORSDOF 3
ENDMDL
