MODEL 1
REMARK VINA RESULT:    -8.764      0.000      0.000
REMARK INTER + INTRA:         -10.053
REMARK INTER:                  -9.788
REMARK INTRA:                  -0.265
REMARK UNBOUND:                -0.265
REMARK SMILES CC(=O)Oc1ccc2c(C)cc(=O)oc2c1
REMARK SMILES IDX 4 1 2 2 3 3 1 4 5 5 16 6 6 7 15 8 7 9 8 10 14 11 9 12 12 13
REMARK SMILES IDX 11 14 13 15 10 16
REMARK H PARENT
ROOT
ATOM      1  O   UNL     1     -26.028   7.094   6.471  1.00  0.00    -0.427 OA
ENDROOT
BRANCH   1   2
ATOM      2  C   UNL     1     -25.200   6.902   7.573  1.00  0.00    +0.308 C 
ATOM      3  O   UNL     1     -24.416   7.708   8.052  1.00  0.00    -0.252 OA
ATOM      4  C   UNL     1     -25.418   5.516   8.102  1.00  0.00    +0.139 C 
ENDBRANCH   1   2
BRANCH   1   5
ATOM      5  C   UNL     1     -26.934   8.152   6.592  1.00  0.00    +0.134 A 
ATOM      6  C   UNL     1     -26.652   9.329   5.910  1.00  0.00    +0.095 A 
ATOM      7  C   UNL     1     -28.124   8.001   7.302  1.00  0.00    +0.048 A 
ATOM      8  C   UNL     1     -27.571  10.375   5.982  1.00  0.00    +0.142 A 
ATOM      9  C   UNL     1     -29.032   9.065   7.363  1.00  0.00    +0.016 A 
ATOM     10  C   UNL     1     -28.766  10.273   6.703  1.00  0.00    +0.021 A 
ATOM     11  O   UNL     1     -27.233  11.548   5.281  1.00  0.00    -0.423 OA
ATOM     12  C   UNL     1     -29.674  11.428   6.728  1.00  0.00    -0.033 A 
ATOM     13  C   UNL     1     -28.071  12.650   5.285  1.00  0.00    +0.336 A 
ATOM     14  C   UNL     1     -29.320  12.532   6.053  1.00  0.00    +0.098 A 
ATOM     15  O   UNL     1     -27.802  13.682   4.682  1.00  0.00    -0.246 OA
ATOM     16  C   UNL     1     -30.960  11.362   7.498  1.00  0.00    +0.045 C 
ENDBRANCH   1   5
TORSDOF 2
ENDMDL
MODEL 2
REMARK VINA RESULT:    -8.373      2.796      4.622
REMARK INTER + INTRA:          -9.617
REMARK INTER:                  -9.340
REMARK INTRA:                  -0.278
REMARK UNBOUND:                -0.265
REMARK SMILES CC(=O)Oc1ccc2c(C)cc(=O)oc2c1
REMARK SMILES IDX 4 1 2 2 3 3 1 4 5 5 16 6 6 7 15 8 7 9 8 10 14 11 9 12 12 13
REMARK SMILES IDX 11 14 13 15 10 16
REMARK H PARENT
ROOT
ATOM      1  O   UNL     1     -31.815   8.984   7.683  1.00  0.00    -0.427 OA
ENDROOT
BRANCH   1   2
ATOM      2  C   UNL     1     -32.158   7.925   6.847  1.00  0.00    +0.308 C 
ATOM      3  O   UNL     1     -32.448   7.989   5.661  1.00  0.00    -0.252 OA
ATOM      4  C   UNL     1     -32.118   6.653   7.641  1.00  0.00    +0.139 C 
ENDBRANCH   1   2
BRANCH   1   5
ATOM      5  C   UNL     1     -30.800   9.813   7.198  1.00  0.00    +0.134 A 
ATOM      6  C   UNL     1     -29.518   9.286   7.105  1.00  0.00    +0.095 A 
ATOM      7  C   UNL     1     -31.081  11.101   6.742  1.00  0.00    +0.048 A 
ATOM      8  C   UNL     1     -28.506  10.087   6.577  1.00  0.00    +0.142 A 
ATOM      9  C   UNL     1     -30.050  11.889   6.218  1.00  0.00    +0.016 A 
ATOM     10  C   UNL     1     -28.741  11.392   6.130  1.00  0.00    +0.021 A 
ATOM     11  O   UNL     1     -27.225   9.508   6.514  1.00  0.00    -0.423 OA
ATOM     12  C   UNL     1     -27.613  12.166   5.594  1.00  0.00    -0.033 A 
ATOM     13  C   UNL     1     -26.146  10.213   6.010  1.00  0.00    +0.336 A 
ATOM     14  C   UNL     1     -26.405  11.586   5.551  1.00  0.00    +0.098 A 
ATOM     15  O   UNL     1     -25.021   9.732   5.941  1.00  0.00    -0.246 OA
ATOM     16  C   UNL     1     -27.823  13.572   5.113  1.00  0.00    +0.045 C 
ENDBRANCH   1   5
TORSDOF 2
ENDMDL
MODEL 3
REMARK VINA RESULT:    -8.305      1.733      2.578
REMARK INTER + INTRA:          -9.541
REMARK INTER:                  -9.329
REMARK INTRA:                  -0.212
REMARK UNBOUND:                -0.265
REMARK SMILES CC(=O)Oc1ccc2c(C)cc(=O)oc2c1
REMARK SMILES IDX 4 1 2 2 3 3 1 4 5 5 16 6 6 7 15 8 7 9 8 10 14 11 9 12 12 13
REMARK SMILES IDX 11 14 13 15 10 16
REMARK H PARENT
ROOT
ATOM      1  O   UNL     1     -26.179   6.860   6.533  1.00  0.00    -0.427 OA
ENDROOT
BRANCH   1   2
ATOM      2  C   UNL     1     -25.373   6.783   7.664  1.00  0.00    +0.308 C 
ATOM      3  O   UNL     1     -24.484   7.558   7.988  1.00  0.00    -0.252 OA
ATOM      4  C   UNL     1     -25.767   5.569   8.453  1.00  0.00    +0.139 C 
ENDBRANCH   1   2
BRANCH   1   5
ATOM      5  C   UNL     1     -26.818   8.090   6.347  1.00  0.00    +0.134 A 
ATOM      6  C   UNL     1     -28.034   8.294   6.988  1.00  0.00    +0.095 A 
ATOM      7  C   UNL     1     -26.214   9.109   5.611  1.00  0.00    +0.048 A 
ATOM      8  C   UNL     1     -28.658   9.533   6.850  1.00  0.00    +0.142 A 
ATOM      9  C   UNL     1     -26.859  10.344   5.484  1.00  0.00    +0.016 A 
ATOM     10  C   UNL     1     -28.097  10.574   6.101  1.00  0.00    +0.021 A 
ATOM     11  O   UNL     1     -29.890   9.685   7.512  1.00  0.00    -0.423 OA
ATOM     12  C   UNL     1     -28.828  11.846   6.006  1.00  0.00    -0.033 A 
ATOM     13  C   UNL     1     -30.598  10.872   7.442  1.00  0.00    +0.336 A 
ATOM     14  C   UNL     1     -30.002  11.956   6.646  1.00  0.00    +0.098 A 
ATOM     15  O   UNL     1     -31.672  11.032   8.010  1.00  0.00    -0.246 OA
ATOM     16  C   UNL     1     -28.264  12.983   5.206  1.00  0.00    +0.045 C 
ENDBRANCH   1   5
TORSDOF 2
ENDMDL
MODEL 4
REMARK VINA RESULT:    -8.109      2.979      4.397
REMARK INTER + INTRA:          -9.322
REMARK INTER:                  -9.045
REMARK INTRA:                  -0.277
REMARK UNBOUND:                -0.265
REMARK SMILES CC(=O)Oc1ccc2c(C)cc(=O)oc2c1
REMARK SMILES IDX 4 1 2 2 3 3 1 4 5 5 16 6 6 7 15 8 7 9 8 10 14 11 9 12 12 13
REMARK SMILES IDX 11 14 13 15 10 16
REMARK H PARENT
ROOT
ATOM      1  O   UNL     1     -31.771   8.771   7.591  1.00  0.00    -0.427 OA
ENDROOT
BRANCH   1   2
ATOM      2  C   UNL     1     -32.353   7.790   6.795  1.00  0.00    +0.308 C 
ATOM      3  O   UNL     1     -32.599   7.864   5.599  1.00  0.00    -0.252 OA
ATOM      4  C   UNL     1     -32.645   6.590   7.645  1.00  0.00    +0.139 C 
ENDBRANCH   1   2
BRANCH   1   5
ATOM      5  C   UNL     1     -30.553   9.268   7.119  1.00  0.00    +0.134 A 
ATOM      6  C   UNL     1     -30.520  10.579   6.660  1.00  0.00    +0.095 A 
ATOM      7  C   UNL     1     -29.389   8.502   7.187  1.00  0.00    +0.048 A 
ATOM      8  C   UNL     1     -29.301  11.103   6.232  1.00  0.00    +0.142 A 
ATOM      9  C   UNL     1     -28.177   9.047   6.750  1.00  0.00    +0.016 A 
ATOM     10  C   UNL     1     -28.115  10.360   6.262  1.00  0.00    +0.021 A 
ATOM     11  O   UNL     1     -29.325  12.432   5.769  1.00  0.00    -0.423 OA
ATOM     12  C   UNL     1     -26.877  10.992   5.786  1.00  0.00    -0.033 A 
ATOM     13  C   UNL     1     -28.173  13.053   5.319  1.00  0.00    +0.336 A 
ATOM     14  C   UNL     1     -26.935  12.259   5.347  1.00  0.00    +0.098 A 
ATOM     15  O   UNL     1     -28.165  14.209   4.912  1.00  0.00    -0.246 OA
ATOM     16  C   UNL     1     -25.587  10.226   5.793  1.00  0.00    +0.045 C 
ENDBRANCH   1   5
TORSDOF 2
ENDMDL
MODEL 5
REMARK VINA RESULT:    -7.975      2.296      6.094
REMARK INTER + INTRA:          -9.173
REMARK INTER:                  -8.949
REMARK INTRA:                  -0.224
REMARK UNBOUND:                -0.265
REMARK SMILES CC(=O)Oc1ccc2c(C)cc(=O)oc2c1
REMARK SMILES IDX 4 1 2 2 3 3 1 4 5 5 16 6 6 7 15 8 7 9 8 10 14 11 9 12 12 13
REMARK SMILES IDX 11 14 13 15 10 16
REMARK H PARENT
ROOT
ATOM      1  O   UNL     1     -30.738  10.309   6.553  1.00  0.00    -0.427 OA
ENDROOT
BRANCH   1   2
ATOM      2  C   UNL     1     -31.245  10.864   7.724  1.00  0.00    +0.308 C 
ATOM      3  O   UNL     1     -32.174  10.439   8.397  1.00  0.00    -0.252 OA
ATOM      4  C   UNL     1     -30.460  12.100   8.050  1.00  0.00    +0.139 C 
ENDBRANCH   1   2
BRANCH   1   5
ATOM      5  C   UNL     1     -29.502   9.671   6.690  1.00  0.00    +0.134 A 
ATOM      6  C   UNL     1     -29.454   8.501   7.438  1.00  0.00    +0.095 A 
ATOM      7  C   UNL     1     -28.371  10.145   6.027  1.00  0.00    +0.048 A 
ATOM      8  C   UNL     1     -28.238   7.827   7.542  1.00  0.00    +0.142 A 
ATOM      9  C   UNL     1     -27.159   9.455   6.146  1.00  0.00    +0.016 A 
ATOM     10  C   UNL     1     -27.074   8.282   6.912  1.00  0.00    +0.021 A 
ATOM     11  O   UNL     1     -28.242   6.653   8.318  1.00  0.00    -0.423 OA
ATOM     12  C   UNL     1     -25.835   7.511   7.080  1.00  0.00    -0.033 A 
ATOM     13  C   UNL     1     -27.090   5.906   8.491  1.00  0.00    +0.336 A 
ATOM     14  C   UNL     1     -25.873   6.399   7.830  1.00  0.00    +0.098 A 
ATOM     15  O   UNL     1     -27.067   4.879   9.159  1.00  0.00    -0.246 OA
ATOM     16  C   UNL     1     -24.564   7.972   6.428  1.00  0.00    +0.045 C 
ENDBRANCH   1   5
TORSDOF 2
ENDMDL
MODEL 6
REMARK VINA RESULT:    -7.694      3.775      5.412
REMARK INTER + INTRA:          -8.859
REMARK INTER:                  -8.746
REMARK INTRA:                  -0.113
REMARK UNBOUND:                -0.265
REMARK SMILES CC(=O)Oc1ccc2c(C)cc(=O)oc2c1
REMARK SMILES IDX 4 1 2 2 3 3 1 4 5 5 16 6 6 7 15 8 7 9 8 10 14 11 9 12 12 13
REMARK SMILES IDX 11 14 13 15 10 16
REMARK H PARENT
ROOT
ATOM      1  O   UNL     1     -32.685   6.610   7.996  1.00  0.00    -0.427 OA
ENDROOT
BRANCH   1   2
ATOM      2  C   UNL     1     -33.843   6.556   7.227  1.00  0.00    +0.308 C 
ATOM      3  O   UNL     1     -34.975   6.857   7.581  1.00  0.00    -0.252 OA
ATOM      4  C   UNL     1     -33.489   6.059   5.858  1.00  0.00    +0.139 C 
ENDBRANCH   1   2
BRANCH   1   5
ATOM      5  C   UNL     1     -31.808   7.649   7.671  1.00  0.00    +0.134 A 
ATOM      6  C   UNL     1     -30.445   7.382   7.698  1.00  0.00    +0.095 A 
ATOM      7  C   UNL     1     -32.288   8.889   7.250  1.00  0.00    +0.048 A 
ATOM      8  C   UNL     1     -29.561   8.395   7.329  1.00  0.00    +0.142 A 
ATOM      9  C   UNL     1     -31.384   9.893   6.886  1.00  0.00    +0.016 A 
ATOM     10  C   UNL     1     -30.001   9.660   6.923  1.00  0.00    +0.021 A 
ATOM     11  O   UNL     1     -28.192   8.075   7.382  1.00  0.00    -0.423 OA
ATOM     12  C   UNL     1     -28.998  10.670   6.557  1.00  0.00    -0.033 A 
ATOM     13  C   UNL     1     -27.226   9.005   7.040  1.00  0.00    +0.336 A 
ATOM     14  C   UNL     1     -27.701  10.333   6.622  1.00  0.00    +0.098 A 
ATOM     15  O   UNL     1     -26.028   8.752   7.075  1.00  0.00    -0.246 OA
ATOM     16  C   UNL     1     -29.430  12.041   6.125  1.00  0.00    +0.045 C 
ENDBRANCH   1   5
TORSDOF 2
ENDMDL
MODEL 7
REMARK VINA RESULT:    -7.690      2.225      5.498
REMARK INTER + INTRA:          -8.854
REMARK INTER:                  -8.745
REMARK INTRA:                  -0.109
REMARK UNBOUND:                -0.265
REMARK SMILES CC(=O)Oc1ccc2c(C)cc(=O)oc2c1
REMARK SMILES IDX 4 1 2 2 3 3 1 4 5 5 16 6 6 7 15 8 7 9 8 10 14 11 9 12 12 13
REMARK SMILES IDX 11 14 13 15 10 16
REMARK H PARENT
ROOT
ATOM      1  O   UNL     1     -30.973   9.833   6.646  1.00  0.00    -0.427 OA
ENDROOT
BRANCH   1   2
ATOM      2  C   UNL     1     -31.371  10.652   7.698  1.00  0.00    +0.308 C 
ATOM      3  O   UNL     1     -32.280  10.444   8.490  1.00  0.00    -0.252 OA
ATOM      4  C   UNL     1     -30.493  11.868   7.720  1.00  0.00    +0.139 C 
ENDBRANCH   1   2
BRANCH   1   5
ATOM      5  C   UNL     1     -29.922   8.961   6.942  1.00  0.00    +0.134 A 
ATOM      6  C   UNL     1     -28.643   9.323   6.535  1.00  0.00    +0.095 A 
ATOM      7  C   UNL     1     -30.135   7.808   7.696  1.00  0.00    +0.048 A 
ATOM      8  C   UNL     1     -27.578   8.486   6.866  1.00  0.00    +0.142 A 
ATOM      9  C   UNL     1     -29.052   6.981   8.015  1.00  0.00    +0.016 A 
ATOM     10  C   UNL     1     -27.753   7.308   7.600  1.00  0.00    +0.021 A 
ATOM     11  O   UNL     1     -26.307   8.895   6.421  1.00  0.00    -0.423 OA
ATOM     12  C   UNL     1     -26.574   6.484   7.899  1.00  0.00    -0.033 A 
ATOM     13  C   UNL     1     -25.179   8.139   6.692  1.00  0.00    +0.336 A 
ATOM     14  C   UNL     1     -25.377   6.900   7.458  1.00  0.00    +0.098 A 
ATOM     15  O   UNL     1     -24.060   8.472   6.319  1.00  0.00    -0.246 OA
ATOM     16  C   UNL     1     -26.721   5.209   8.677  1.00  0.00    +0.045 C 
ENDBRANCH   1   5
TORSDOF 2
ENDMDL
MODEL 8
REMARK VINA RESULT:    -7.063      8.962     10.311
REMARK INTER + INTRA:          -8.154
REMARK INTER:                  -7.915
REMARK INTRA:                  -0.239
REMARK UNBOUND:                -0.265
REMARK SMILES CC(=O)Oc1ccc2c(C)cc(=O)oc2c1
REMARK SMILES IDX 4 1 2 2 3 3 1 4 5 5 16 6 6 7 15 8 7 9 8 10 14 11 9 12 12 13
REMARK SMILES IDX 11 14 13 15 10 16
REMARK H PARENT
ROOT
ATOM      1  O   UNL     1     -33.367   5.620   6.823  1.00  0.00    -0.427 OA
ENDROOT
BRANCH   1   2
ATOM      2  C   UNL     1     -32.680   6.738   7.286  1.00  0.00    +0.308 C 
ATOM      3  O   UNL     1     -32.797   7.889   6.890  1.00  0.00    -0.252 OA
ATOM      4  C   UNL     1     -31.745   6.310   8.377  1.00  0.00    +0.139 C 
ENDBRANCH   1   2
BRANCH   1   5
ATOM      5  C   UNL     1     -34.341   5.123   7.695  1.00  0.00    +0.134 A 
ATOM      6  C   UNL     1     -35.419   5.944   8.002  1.00  0.00    +0.095 A 
ATOM      7  C   UNL     1     -34.276   3.815   8.173  1.00  0.00    +0.048 A 
ATOM      8  C   UNL     1     -36.421   5.443   8.831  1.00  0.00    +0.142 A 
ATOM      9  C   UNL     1     -35.292   3.332   9.006  1.00  0.00    +0.016 A 
ATOM     10  C   UNL     1     -36.382   4.144   9.351  1.00  0.00    +0.021 A 
ATOM     11  O   UNL     1     -37.486   6.318   9.118  1.00  0.00    -0.423 OA
ATOM     12  C   UNL     1     -37.480   3.701  10.221  1.00  0.00    -0.033 A 
ATOM     13  C   UNL     1     -38.534   5.926   9.932  1.00  0.00    +0.336 A 
ATOM     14  C   UNL     1     -38.477   4.561  10.477  1.00  0.00    +0.098 A 
ATOM     15  O   UNL     1     -39.474   6.666  10.195  1.00  0.00    -0.246 OA
ATOM     16  C   UNL     1     -37.470   2.319  10.805  1.00  0.00    +0.045 C 
ENDBRANCH   1   5
TORSDOF 2
ENDMDL
MODEL 9
REMARK VINA RESULT:    -6.756      6.232      8.373
REMARK INTER + INTRA:          -7.811
REMARK INTER:                  -7.576
REMARK INTRA:                  -0.234
REMARK UNBOUND:                -0.265
REMARK SMILES CC(=O)Oc1ccc2c(C)cc(=O)oc2c1
REMARK SMILES IDX 4 1 2 2 3 3 1 4 5 5 16 6 6 7 15 8 7 9 8 10 14 11 9 12 12 13
REMARK SMILES IDX 11 14 13 15 10 16
REMARK H PARENT
ROOT
ATOM      1  O   UNL     1     -32.013   9.003   6.595  1.00  0.00    -0.427 OA
ENDROOT
BRANCH   1   2
ATOM      2  C   UNL     1     -31.837  10.115   7.412  1.00  0.00    +0.308 C 
ATOM      3  O   UNL     1     -32.384  10.334   8.484  1.00  0.00    -0.252 OA
ATOM      4  C   UNL     1     -30.845  11.036   6.765  1.00  0.00    +0.139 C 
ENDBRANCH   1   2
BRANCH   1   5
ATOM      5  C   UNL     1     -32.261   7.806   7.272  1.00  0.00    +0.134 A 
ATOM      6  C   UNL     1     -33.541   7.270   7.196  1.00  0.00    +0.095 A 
ATOM      7  C   UNL     1     -31.237   7.127   7.931  1.00  0.00    +0.048 A 
ATOM      8  C   UNL     1     -33.790   6.051   7.827  1.00  0.00    +0.142 A 
ATOM      9  C   UNL     1     -31.509   5.906   8.559  1.00  0.00    +0.016 A 
ATOM     10  C   UNL     1     -32.796   5.350   8.518  1.00  0.00    +0.021 A 
ATOM     11  O   UNL     1     -35.104   5.558   7.727  1.00  0.00    -0.423 OA
ATOM     12  C   UNL     1     -33.150   4.075   9.157  1.00  0.00    -0.033 A 
ATOM     13  C   UNL     1     -35.464   4.358   8.316  1.00  0.00    +0.336 A 
ATOM     14  C   UNL     1     -34.412   3.635   9.046  1.00  0.00    +0.098 A 
ATOM     15  O   UNL     1     -36.600   3.904   8.243  1.00  0.00    -0.246 OA
ATOM     16  C   UNL     1     -32.114   3.297   9.916  1.00  0.00    +0.045 C 
ENDBRANCH   1   5
TORSDOF 2
ENDMDL
