REMARK SMILES O=C1O[C@@](c2ccccc2)(c2cccc3ccccc23)C[C@H]1c1ccccc1
REMARK SMILES IDX 1 1 2 2 3 3 4 4 21 5 22 6 23 7 24 8 28 9 25 10 27 11 26 12
REMARK SMILES IDX 5 13 6 14 10 15 7 16 9 17 8 18 11 19 20 20 12 21 19 22 15 23
REMARK SMILES IDX 13 24 18 25 16 26 14 27 17 28
REMARK H PARENT
ROOT
ATOM      1  O   UNL     1       2.103   0.459  -2.613  1.00  0.00    -0.252 OA
ATOM      2  C   UNL     1       1.537   0.351  -1.537  1.00  0.00    +0.314 C 
ATOM      3  O   UNL     1       0.209   0.052  -1.419  1.00  0.00    -0.449 OA
ATOM      4  C   UNL     1      -0.223   0.131  -0.041  1.00  0.00    +0.164 C 
ATOM      5  C   UNL     1       1.104  -0.139   0.692  1.00  0.00    +0.079 C 
ATOM      6  C   UNL     1       2.134   0.566  -0.173  1.00  0.00    +0.134 C 
ENDROOT
BRANCH   6   7
ATOM      7  C   UNL     1       3.530   0.037   0.058  1.00  0.00    -0.034 A 
ATOM      8  C   UNL     1       4.366   0.694   0.976  1.00  0.00    +0.004 A 
ATOM      9  C   UNL     1       4.010  -1.122  -0.572  1.00  0.00    +0.004 A 
ATOM     10  C   UNL     1       5.650   0.216   1.244  1.00  0.00    +0.000 A 
ATOM     11  C   UNL     1       5.295  -1.598  -0.303  1.00  0.00    +0.000 A 
ATOM     12  C   UNL     1       6.114  -0.930   0.603  1.00  0.00    +0.000 A 
ENDBRANCH   6   7
BRANCH   4  13
ATOM     13  C   UNL     1      -0.745   1.543   0.303  1.00  0.00    +0.000 A 
ATOM     14  C   UNL     1      -0.828   2.564  -0.661  1.00  0.00    +0.008 A 
ATOM     15  C   UNL     1      -1.150   1.848   1.617  1.00  0.00    +0.008 A 
ATOM     16  C   UNL     1      -1.288   3.840  -0.322  1.00  0.00    +0.000 A 
ATOM     17  C   UNL     1      -1.611   3.123   1.954  1.00  0.00    +0.000 A 
ATOM     18  C   UNL     1      -1.678   4.119   0.984  1.00  0.00    +0.000 A 
ENDBRANCH   4  13
BRANCH   4  19
ATOM     19  C   UNL     1      -1.313  -0.939   0.205  1.00  0.00    +0.008 A 
ATOM     20  C   UNL     1      -2.428  -1.137  -0.683  1.00  0.00    -0.011 A 
ATOM     21  C   UNL     1      -1.244  -1.728   1.378  1.00  0.00    +0.009 A 
ATOM     22  C   UNL     1      -2.667  -0.398  -1.869  1.00  0.00    +0.009 A 
ATOM     23  C   UNL     1      -3.386  -2.141  -0.369  1.00  0.00    -0.018 A 
ATOM     24  C   UNL     1      -2.194  -2.703   1.664  1.00  0.00    +0.001 A 
ATOM     25  C   UNL     1      -3.768  -0.639  -2.699  1.00  0.00    +0.001 A 
ATOM     26  C   UNL     1      -4.486  -2.375  -1.211  1.00  0.00    +0.009 A 
ATOM     27  C   UNL     1      -3.252  -2.910   0.792  1.00  0.00    +0.009 A 
ATOM     28  C   UNL     1      -4.677  -1.630  -2.370  1.00  0.00    +0.001 A 
ENDBRANCH   4  19
TORSDOF 3
