REMARK SMILES Cc1ccc(Nc2nc(C)nc3c2cnn3C)cc1
REMARK SMILES IDX 6 1 7 3 16 4 15 5 12 6 14 7 11 8 13 9 9 10 8 11 17 12 10 13
REMARK SMILES IDX 5 14 4 15 18 16 3 17 19 18 2 19 1 20
REMARK H PARENT 6 2
ROOT
ATOM      1  N   UNL     1       0.340  -1.510  -0.587  1.00  0.00    -0.340 N 
ATOM      2  H   UNL     1       0.390  -2.490  -0.318  1.00  0.00    +0.168 HD
ENDROOT
BRANCH   1   3
ATOM      3  C   UNL     1      -0.926  -1.042  -0.207  1.00  0.00    +0.145 A 
ATOM      4  N   UNL     1      -2.931   1.831  -0.340  1.00  0.00    -0.250 N 
ATOM      5  N   UNL     1      -1.892   2.425  -0.971  1.00  0.00    -0.179 NA
ATOM      6  C   UNL     1      -2.697   0.524  -0.008  1.00  0.00    +0.163 A 
ATOM      7  C   UNL     1      -0.978   1.450  -1.035  1.00  0.00    +0.149 A 
ATOM      8  N   UNL     1      -3.539  -0.325   0.604  1.00  0.00    -0.214 NA
ATOM      9  C   UNL     1      -1.413   0.248  -0.437  1.00  0.00    +0.082 A 
ATOM     10  C   UNL     1      -3.003  -1.552   0.749  1.00  0.00    +0.130 A 
ATOM     11  N   UNL     1      -1.761  -1.939   0.378  1.00  0.00    -0.215 NA
ATOM     12  C   UNL     1      -4.136   2.585  -0.097  1.00  0.00    +0.176 C 
ATOM     13  C   UNL     1      -3.852  -2.582   1.430  1.00  0.00    +0.090 C 
ENDBRANCH   1   3
BRANCH   1  14
ATOM     14  C   UNL     1       1.591  -0.881  -0.424  1.00  0.00    +0.040 A 
ATOM     15  C   UNL     1       2.669  -1.339  -1.191  1.00  0.00    +0.026 A 
ATOM     16  C   UNL     1       1.822   0.143   0.499  1.00  0.00    +0.026 A 
ATOM     17  C   UNL     1       3.940  -0.771  -1.060  1.00  0.00    +0.005 A 
ATOM     18  C   UNL     1       3.091   0.715   0.633  1.00  0.00    +0.005 A 
ATOM     19  C   UNL     1       4.163   0.257  -0.139  1.00  0.00    -0.051 A 
ATOM     20  C   UNL     1       5.515   0.894  -0.021  1.00  0.00    +0.044 C 
ENDBRANCH   1  14
TORSDOF 2
