REMARK SMILES O=C(CC(CC(=O)c1ccccc1)c1ccncc1)c1ccccc1
REMARK SMILES IDX 4 1 3 2 2 3 1 4 20 5 21 6 25 7 22 8 24 9 23 10 5 11 6 12
REMARK SMILES IDX 7 13 8 14 9 15 13 16 10 17 12 18 11 19 14 20 15 21 19 22
REMARK SMILES IDX 16 23 18 24 17 25
REMARK H PARENT
ROOT
ATOM      1  C   UNL     1       0.015   0.166  -1.230  1.00  0.00    +0.035 C 
ENDROOT
BRANCH   1   2
ATOM      2  C   UNL     1      -1.357   0.852  -1.050  1.00  0.00    +0.090 C 
BRANCH   2   3
ATOM      3  C   UNL     1      -1.904   0.924   0.367  1.00  0.00    +0.163 C 
ATOM      4  O   UNL     1      -1.175   0.979   1.356  1.00  0.00    -0.294 OA
BRANCH   3   5
ATOM      5  C   UNL     1      -3.383   0.975   0.565  1.00  0.00    +0.018 A 
ATOM      6  C   UNL     1      -3.897   0.642   1.825  1.00  0.00    +0.012 A 
ATOM      7  C   UNL     1      -4.260   1.360  -0.456  1.00  0.00    +0.012 A 
ATOM      8  C   UNL     1      -5.274   0.677   2.057  1.00  0.00    +0.001 A 
ATOM      9  C   UNL     1      -5.637   1.393  -0.220  1.00  0.00    +0.001 A 
ATOM     10  C   UNL     1      -6.142   1.050   1.033  1.00  0.00    +0.000 A 
ENDBRANCH   3   5
ENDBRANCH   2   3
ENDBRANCH   1   2
BRANCH   1  11
ATOM     11  C   UNL     1       1.141   0.778  -0.373  1.00  0.00    +0.090 C 
BRANCH  11  12
ATOM     12  C   UNL     1       2.522   0.514  -0.956  1.00  0.00    +0.163 C 
ATOM     13  O   UNL     1       2.697   0.275  -2.150  1.00  0.00    -0.294 OA
BRANCH  12  14
ATOM     14  C   UNL     1       3.708   0.589  -0.050  1.00  0.00    +0.018 A 
ATOM     15  C   UNL     1       3.648   1.196   1.211  1.00  0.00    +0.012 A 
ATOM     16  C   UNL     1       4.921   0.045  -0.494  1.00  0.00    +0.012 A 
ATOM     17  C   UNL     1       4.787   1.243   2.020  1.00  0.00    +0.001 A 
ATOM     18  C   UNL     1       6.056   0.094   0.317  1.00  0.00    +0.001 A 
ATOM     19  C   UNL     1       5.987   0.692   1.574  1.00  0.00    +0.000 A 
ENDBRANCH  12  14
ENDBRANCH  11  12
ENDBRANCH   1  11
BRANCH   1  20
ATOM     20  C   UNL     1      -0.075  -1.349  -1.092  1.00  0.00    -0.041 A 
ATOM     21  C   UNL     1       0.107  -2.159  -2.219  1.00  0.00    +0.024 A 
ATOM     22  C   UNL     1      -0.327  -1.982   0.129  1.00  0.00    +0.024 A 
ATOM     23  C   UNL     1       0.018  -3.536  -2.082  1.00  0.00    +0.111 A 
ATOM     24  C   UNL     1      -0.401  -3.368   0.165  1.00  0.00    +0.111 A 
ATOM     25  N   UNL     1      -0.240  -4.160  -0.914  1.00  0.00    -0.265 NA
ENDBRANCH   1  20
TORSDOF 7
