REMARK SMILES Oc1ccc(N=Cc2ccccc2O)cc1
REMARK SMILES IDX 6 1 7 2 5 3 2 4 3 5 16 6 4 7 15 8 1 9 8 11 13 12 9 13 12 14
REMARK SMILES IDX 10 15 11 16 14 17
REMARK H PARENT 1 10 14 18
ROOT
ATOM      1  N   UNL     1      -0.107  -0.602  -0.344  1.00  0.00    -0.256 NA
ATOM      2  C   UNL     1       0.427   0.354   0.355  1.00  0.00    +0.123 C 
ENDROOT
BRANCH   1   3
ATOM      3  C   UNL     1      -1.409  -0.362  -0.804  1.00  0.00    +0.063 A 
ATOM      4  C   UNL     1      -3.995   0.082  -1.746  1.00  0.00    +0.115 A 
ATOM      5  C   UNL     1      -2.909   0.353  -2.572  1.00  0.00    +0.048 A 
ATOM      6  C   UNL     1      -3.807  -0.417  -0.462  1.00  0.00    +0.048 A 
ATOM      7  C   UNL     1      -1.615   0.125  -2.098  1.00  0.00    +0.032 A 
ATOM      8  C   UNL     1      -2.512  -0.645   0.007  1.00  0.00    +0.032 A 
BRANCH   4   9
ATOM      9  O   UNL     1      -5.276   0.289  -2.164  1.00  0.00    -0.508 OA
ATOM     10  H   UNL     1      -5.255   0.603  -3.083  1.00  0.00    +0.293 HD
ENDBRANCH   4   9
ENDBRANCH   1   3
BRANCH   2  11
ATOM     11  C   UNL     1       1.793   0.233   0.901  1.00  0.00    +0.035 A 
ATOM     12  C   UNL     1       2.575  -0.910   0.695  1.00  0.00    +0.124 A 
ATOM     13  C   UNL     1       2.306   1.302   1.643  1.00  0.00    +0.013 A 
ATOM     14  C   UNL     1       3.860  -0.986   1.226  1.00  0.00    +0.047 A 
ATOM     15  C   UNL     1       3.595   1.223   2.175  1.00  0.00    +0.001 A 
ATOM     16  C   UNL     1       4.370   0.081   1.966  1.00  0.00    +0.004 A 
BRANCH  12  17
ATOM     17  O   UNL     1       2.139  -1.992  -0.020  1.00  0.00    -0.507 OA
ATOM     18  H   UNL     1       1.223  -1.790  -0.320  1.00  0.00    +0.293 HD
ENDBRANCH  12  17
ENDBRANCH   2  11
TORSDOF 4
