MODEL 1
REMARK VINA RESULT:    -9.071      0.000      0.000
REMARK INTER + INTRA:         -10.622
REMARK INTER:                 -10.131
REMARK INTRA:                  -0.491
REMARK UNBOUND:                -0.491
REMARK SMILES Cc1nc(Nc2ccccc2C)c2cnn(C)c2n1
REMARK SMILES IDX 5 1 4 3 16 4 15 5 18 6 14 7 19 8 13 9 2 10 3 11 17 12 1 13
REMARK SMILES IDX 6 14 11 15 7 16 10 17 8 18 9 19 12 20
REMARK H PARENT 5 2
ROOT
ATOM      1  N   UNL     1     -30.734   8.560   7.597  1.00  0.00    -0.339 N 
ATOM      2  H   UNL     1     -31.242   9.332   8.025  1.00  0.00    +0.168 HD
ENDROOT
BRANCH   1   3
ATOM      3  C   UNL     1     -29.512   9.088   7.152  1.00  0.00    +0.145 A 
ATOM      4  N   UNL     1     -26.094   8.316   7.027  1.00  0.00    -0.250 N 
ATOM      5  N   UNL     1     -26.420   7.153   7.638  1.00  0.00    -0.179 NA
ATOM      6  C   UNL     1     -27.167   9.134   6.794  1.00  0.00    +0.163 A 
ATOM      7  C   UNL     1     -27.746   7.253   7.793  1.00  0.00    +0.149 A 
ATOM      8  N   UNL     1     -27.159  10.348   6.221  1.00  0.00    -0.214 NA
ATOM      9  C   UNL     1     -28.271   8.456   7.276  1.00  0.00    +0.082 A 
ATOM     10  C   UNL     1     -28.388  10.894   6.173  1.00  0.00    +0.130 A 
ATOM     11  N   UNL     1     -29.540  10.328   6.603  1.00  0.00    -0.215 NA
ATOM     12  C   UNL     1     -24.715   8.582   6.700  1.00  0.00    +0.176 C 
ATOM     13  C   UNL     1     -28.501  12.248   5.541  1.00  0.00    +0.090 C 
ENDBRANCH   1   3
BRANCH   1  14
ATOM     14  C   UNL     1     -31.621   7.721   6.884  1.00  0.00    +0.043 A 
ATOM     15  C   UNL     1     -32.144   6.574   7.516  1.00  0.00    -0.028 A 
ATOM     16  C   UNL     1     -32.080   8.055   5.601  1.00  0.00    +0.026 A 
ATOM     17  C   UNL     1     -33.070   5.767   6.835  1.00  0.00    +0.005 A 
ATOM     18  C   UNL     1     -32.998   7.245   4.932  1.00  0.00    +0.002 A 
ATOM     19  C   UNL     1     -33.490   6.098   5.548  1.00  0.00    +0.000 A 
ATOM     20  C   UNL     1     -31.710   6.188   8.904  1.00  0.00    +0.046 C 
ENDBRANCH   1  14
TORSDOF 2
ENDMDL
MODEL 2
REMARK VINA RESULT:    -8.710      1.104      2.705
REMARK INTER + INTRA:         -10.220
REMARK INTER:                  -9.718
REMARK INTRA:                  -0.502
REMARK UNBOUND:                -0.491
REMARK SMILES Cc1nc(Nc2ccccc2C)c2cnn(C)c2n1
REMARK SMILES IDX 5 1 4 3 16 4 15 5 18 6 14 7 19 8 13 9 2 10 3 11 17 12 1 13
REMARK SMILES IDX 6 14 11 15 7 16 10 17 8 18 9 19 12 20
REMARK H PARENT 5 2
ROOT
ATOM      1  N   UNL     1     -30.538   8.375   7.645  1.00  0.00    -0.339 N 
ATOM      2  H   UNL     1     -30.918   9.274   7.934  1.00  0.00    +0.168 HD
ENDROOT
BRANCH   1   3
ATOM      3  C   UNL     1     -29.193   8.600   7.315  1.00  0.00    +0.145 A 
ATOM      4  N   UNL     1     -27.103  11.031   5.895  1.00  0.00    -0.250 N 
ATOM      5  N   UNL     1     -28.215  11.794   5.772  1.00  0.00    -0.179 NA
ATOM      6  C   UNL     1     -27.338   9.805   6.456  1.00  0.00    +0.163 A 
ATOM      7  C   UNL     1     -29.178  11.010   6.272  1.00  0.00    +0.149 A 
ATOM      8  N   UNL     1     -26.444   8.831   6.694  1.00  0.00    -0.214 NA
ATOM      9  C   UNL     1     -28.693   9.766   6.726  1.00  0.00    +0.082 A 
ATOM     10  C   UNL     1     -27.017   7.737   7.229  1.00  0.00    +0.130 A 
ATOM     11  N   UNL     1     -28.324   7.584   7.545  1.00  0.00    -0.215 NA
ATOM     12  C   UNL     1     -25.837  11.548   5.441  1.00  0.00    +0.176 C 
ATOM     13  C   UNL     1     -26.110   6.588   7.549  1.00  0.00    +0.090 C 
ENDBRANCH   1   3
BRANCH   1  14
ATOM     14  C   UNL     1     -31.499   7.651   6.900  1.00  0.00    +0.043 A 
ATOM     15  C   UNL     1     -32.143   6.546   7.494  1.00  0.00    -0.028 A 
ATOM     16  C   UNL     1     -31.907   8.066   5.623  1.00  0.00    +0.026 A 
ATOM     17  C   UNL     1     -33.139   5.858   6.782  1.00  0.00    +0.005 A 
ATOM     18  C   UNL     1     -32.895   7.373   4.924  1.00  0.00    +0.002 A 
ATOM     19  C   UNL     1     -33.508   6.266   5.502  1.00  0.00    +0.000 A 
ATOM     20  C   UNL     1     -31.766   6.080   8.874  1.00  0.00    +0.046 C 
ENDBRANCH   1  14
TORSDOF 2
ENDMDL
MODEL 3
REMARK VINA RESULT:    -8.136      4.697      8.472
REMARK INTER + INTRA:          -9.578
REMARK INTER:                  -9.237
REMARK INTRA:                  -0.342
REMARK UNBOUND:                -0.491
REMARK SMILES Cc1nc(Nc2ccccc2C)c2cnn(C)c2n1
REMARK SMILES IDX 5 1 4 3 16 4 15 5 18 6 14 7 19 8 13 9 2 10 3 11 17 12 1 13
REMARK SMILES IDX 6 14 11 15 7 16 10 17 8 18 9 19 12 20
REMARK H PARENT 5 2
ROOT
ATOM      1  N   UNL     1     -34.806   6.933   7.652  1.00  0.00    -0.339 N 
ATOM      2  H   UNL     1     -35.223   7.719   8.147  1.00  0.00    +0.168 HD
ENDROOT
BRANCH   1   3
ATOM      3  C   UNL     1     -35.085   5.790   8.417  1.00  0.00    +0.145 A 
ATOM      4  N   UNL     1     -37.702   4.261  10.179  1.00  0.00    -0.250 N 
ATOM      5  N   UNL     1     -38.463   5.313   9.794  1.00  0.00    -0.179 NA
ATOM      6  C   UNL     1     -36.411   4.325   9.731  1.00  0.00    +0.163 A 
ATOM      7  C   UNL     1     -37.611   6.059   9.081  1.00  0.00    +0.149 A 
ATOM      8  N   UNL     1     -35.423   3.444   9.959  1.00  0.00    -0.214 NA
ATOM      9  C   UNL     1     -36.323   5.492   8.995  1.00  0.00    +0.082 A 
ATOM     10  C   UNL     1     -34.262   3.827   9.394  1.00  0.00    +0.130 A 
ATOM     11  N   UNL     1     -34.056   4.937   8.648  1.00  0.00    -0.215 NA
ATOM     12  C   UNL     1     -38.287   3.225  10.994  1.00  0.00    +0.176 C 
ATOM     13  C   UNL     1     -33.090   2.911   9.573  1.00  0.00    +0.090 C 
ENDBRANCH   1   3
BRANCH   1  14
ATOM     14  C   UNL     1     -33.566   7.310   7.086  1.00  0.00    +0.043 A 
ATOM     15  C   UNL     1     -33.224   6.844   5.800  1.00  0.00    -0.028 A 
ATOM     16  C   UNL     1     -32.711   8.221   7.724  1.00  0.00    +0.026 A 
ATOM     17  C   UNL     1     -32.021   7.259   5.207  1.00  0.00    +0.005 A 
ATOM     18  C   UNL     1     -31.516   8.625   7.127  1.00  0.00    +0.002 A 
ATOM     19  C   UNL     1     -31.170   8.141   5.870  1.00  0.00    +0.000 A 
ATOM     20  C   UNL     1     -34.121   5.890   5.058  1.00  0.00    +0.046 C 
ENDBRANCH   1  14
TORSDOF 2
ENDMDL
MODEL 4
REMARK VINA RESULT:    -8.014      6.601      8.303
REMARK INTER + INTRA:          -9.442
REMARK INTER:                  -8.957
REMARK INTRA:                  -0.484
REMARK UNBOUND:                -0.491
REMARK SMILES Cc1nc(Nc2ccccc2C)c2cnn(C)c2n1
REMARK SMILES IDX 5 1 4 3 16 4 15 5 18 6 14 7 19 8 13 9 2 10 3 11 17 12 1 13
REMARK SMILES IDX 6 14 11 15 7 16 10 17 8 18 9 19 12 20
REMARK H PARENT 5 2
ROOT
ATOM      1  N   UNL     1     -29.050   1.720  11.494  1.00  0.00    -0.339 N 
ATOM      2  H   UNL     1     -29.603   2.564  11.628  1.00  0.00    +0.168 HD
ENDROOT
BRANCH   1   3
ATOM      3  C   UNL     1     -27.908   2.105  10.774  1.00  0.00    +0.145 A 
ATOM      4  N   UNL     1     -24.571   1.165  10.251  1.00  0.00    -0.250 N 
ATOM      5  N   UNL     1     -24.813   0.143  11.105  1.00  0.00    -0.179 NA
ATOM      6  C   UNL     1     -25.653   1.978  10.048  1.00  0.00    +0.163 A 
ATOM      7  C   UNL     1     -26.094   0.330  11.447  1.00  0.00    +0.149 A 
ATOM      8  N   UNL     1     -25.717   3.073   9.272  1.00  0.00    -0.214 NA
ATOM      9  C   UNL     1     -26.674   1.447  10.812  1.00  0.00    +0.082 A 
ATOM     10  C   UNL     1     -26.928   3.658   9.321  1.00  0.00    +0.130 A 
ATOM     11  N   UNL     1     -28.003   3.230  10.023  1.00  0.00    -0.215 NA
ATOM     12  C   UNL     1     -23.260   1.305   9.669  1.00  0.00    +0.176 C 
ATOM     13  C   UNL     1     -27.119   4.885   8.482  1.00  0.00    +0.090 C 
ENDBRANCH   1   3
BRANCH   1  14
ATOM     14  C   UNL     1     -29.893   0.612  11.245  1.00  0.00    +0.043 A 
ATOM     15  C   UNL     1     -30.677   0.091  12.295  1.00  0.00    -0.028 A 
ATOM     16  C   UNL     1     -30.052   0.083   9.955  1.00  0.00    +0.026 A 
ATOM     17  C   UNL     1     -31.559  -0.972  12.042  1.00  0.00    +0.005 A 
ATOM     18  C   UNL     1     -30.930  -0.975   9.715  1.00  0.00    +0.002 A 
ATOM     19  C   UNL     1     -31.680  -1.505  10.760  1.00  0.00    +0.000 A 
ATOM     20  C   UNL     1     -30.568   0.644  13.690  1.00  0.00    +0.046 C 
ENDBRANCH   1  14
TORSDOF 2
ENDMDL
MODEL 5
REMARK VINA RESULT:    -7.955      4.584      7.566
REMARK INTER + INTRA:          -9.376
REMARK INTER:                  -8.932
REMARK INTRA:                  -0.444
REMARK UNBOUND:                -0.491
REMARK SMILES Cc1nc(Nc2ccccc2C)c2cnn(C)c2n1
REMARK SMILES IDX 5 1 4 3 16 4 15 5 18 6 14 7 19 8 13 9 2 10 3 11 17 12 1 13
REMARK SMILES IDX 6 14 11 15 7 16 10 17 8 18 9 19 12 20
REMARK H PARENT 5 2
ROOT
ATOM      1  N   UNL     1     -33.949   5.245   7.471  1.00  0.00    -0.339 N 
ATOM      2  H   UNL     1     -34.833   5.412   6.995  1.00  0.00    +0.168 HD
ENDROOT
BRANCH   1   3
ATOM      3  C   UNL     1     -34.269   4.866   8.784  1.00  0.00    +0.145 A 
ATOM      4  N   UNL     1     -33.311   2.592  11.275  1.00  0.00    -0.250 N 
ATOM      5  N   UNL     1     -32.378   2.154  10.398  1.00  0.00    -0.179 NA
ATOM      6  C   UNL     1     -34.091   3.606  10.786  1.00  0.00    +0.163 A 
ATOM      7  C   UNL     1     -32.587   2.923   9.322  1.00  0.00    +0.149 A 
ATOM      8  N   UNL     1     -35.101   4.233  11.411  1.00  0.00    -0.214 NA
ATOM      9  C   UNL     1     -33.630   3.854   9.507  1.00  0.00    +0.082 A 
ATOM     10  C   UNL     1     -35.678   5.166  10.631  1.00  0.00    +0.130 A 
ATOM     11  N   UNL     1     -35.312   5.503   9.372  1.00  0.00    -0.215 NA
ATOM     12  C   UNL     1     -33.404   1.978  12.575  1.00  0.00    +0.176 C 
ATOM     13  C   UNL     1     -36.812   5.940  11.230  1.00  0.00    +0.090 C 
ENDBRANCH   1   3
BRANCH   1  14
ATOM     14  C   UNL     1     -32.982   6.191   7.059  1.00  0.00    +0.043 A 
ATOM     15  C   UNL     1     -33.091   6.779   5.781  1.00  0.00    -0.028 A 
ATOM     16  C   UNL     1     -31.975   6.641   7.927  1.00  0.00    +0.026 A 
ATOM     17  C   UNL     1     -32.167   7.760   5.388  1.00  0.00    +0.005 A 
ATOM     18  C   UNL     1     -31.062   7.616   7.524  1.00  0.00    +0.002 A 
ATOM     19  C   UNL     1     -31.155   8.172   6.252  1.00  0.00    +0.000 A 
ATOM     20  C   UNL     1     -34.171   6.355   4.824  1.00  0.00    +0.046 C 
ENDBRANCH   1  14
TORSDOF 2
ENDMDL
MODEL 6
REMARK VINA RESULT:    -7.947      6.624      8.634
REMARK INTER + INTRA:          -9.367
REMARK INTER:                  -8.973
REMARK INTRA:                  -0.394
REMARK UNBOUND:                -0.491
REMARK SMILES Cc1nc(Nc2ccccc2C)c2cnn(C)c2n1
REMARK SMILES IDX 5 1 4 3 16 4 15 5 18 6 14 7 19 8 13 9 2 10 3 11 17 12 1 13
REMARK SMILES IDX 6 14 11 15 7 16 10 17 8 18 9 19 12 20
REMARK H PARENT 5 2
ROOT
ATOM      1  N   UNL     1     -28.841   1.670  10.806  1.00  0.00    -0.339 N 
ATOM      2  H   UNL     1     -29.122   0.918  10.181  1.00  0.00    +0.168 HD
ENDROOT
BRANCH   1   3
ATOM      3  C   UNL     1     -27.582   2.106  10.364  1.00  0.00    +0.145 A 
ATOM      4  N   UNL     1     -24.240   1.058  10.196  1.00  0.00    -0.250 N 
ATOM      5  N   UNL     1     -24.658  -0.088  10.783  1.00  0.00    -0.179 NA
ATOM      6  C   UNL     1     -25.243   1.966   9.990  1.00  0.00    +0.163 A 
ATOM      7  C   UNL     1     -25.971   0.117  10.950  1.00  0.00    +0.149 A 
ATOM      8  N   UNL     1     -25.138   3.189   9.445  1.00  0.00    -0.214 NA
ATOM      9  C   UNL     1     -26.397   1.371  10.465  1.00  0.00    +0.082 A 
ATOM     10  C   UNL     1     -26.318   3.836   9.418  1.00  0.00    +0.130 A 
ATOM     11  N   UNL     1     -27.510   3.356   9.844  1.00  0.00    -0.215 NA
ATOM     12  C   UNL     1     -22.846   1.217   9.866  1.00  0.00    +0.176 C 
ATOM     13  C   UNL     1     -26.323   5.208   8.818  1.00  0.00    +0.090 C 
ENDBRANCH   1   3
BRANCH   1  14
ATOM     14  C   UNL     1     -29.236   1.381  12.133  1.00  0.00    +0.043 A 
ATOM     15  C   UNL     1     -30.390   0.602  12.356  1.00  0.00    -0.028 A 
ATOM     16  C   UNL     1     -28.452   1.759  13.234  1.00  0.00    +0.026 A 
ATOM     17  C   UNL     1     -30.756   0.262  13.668  1.00  0.00    +0.005 A 
ATOM     18  C   UNL     1     -28.826   1.417  14.534  1.00  0.00    +0.002 A 
ATOM     19  C   UNL     1     -29.981   0.673  14.751  1.00  0.00    +0.000 A 
ATOM     20  C   UNL     1     -31.249   0.144  11.208  1.00  0.00    +0.046 C 
ENDBRANCH   1  14
TORSDOF 2
ENDMDL
MODEL 7
REMARK VINA RESULT:    -7.936      6.881      9.281
REMARK INTER + INTRA:          -9.355
REMARK INTER:                  -8.941
REMARK INTRA:                  -0.414
REMARK UNBOUND:                -0.491
REMARK SMILES Cc1nc(Nc2ccccc2C)c2cnn(C)c2n1
REMARK SMILES IDX 5 1 4 3 16 4 15 5 18 6 14 7 19 8 13 9 2 10 3 11 17 12 1 13
REMARK SMILES IDX 6 14 11 15 7 16 10 17 8 18 9 19 12 20
REMARK H PARENT 5 2
ROOT
ATOM      1  N   UNL     1     -26.644   0.150  12.163  1.00  0.00    -0.339 N 
ATOM      2  H   UNL     1     -26.048  -0.347  12.820  1.00  0.00    +0.168 HD
ENDROOT
BRANCH   1   3
ATOM      3  C   UNL     1     -25.817   1.062  11.488  1.00  0.00    +0.145 A 
ATOM      4  N   UNL     1     -25.977   4.050   9.661  1.00  0.00    -0.250 N 
ATOM      5  N   UNL     1     -27.313   4.015   9.880  1.00  0.00    -0.179 NA
ATOM      6  C   UNL     1     -25.302   2.993  10.209  1.00  0.00    +0.163 A 
ATOM      7  C   UNL     1     -27.474   2.891  10.589  1.00  0.00    +0.149 A 
ATOM      8  N   UNL     1     -23.984   2.746  10.149  1.00  0.00    -0.214 NA
ATOM      9  C   UNL     1     -26.259   2.218  10.837  1.00  0.00    +0.082 A 
ATOM     10  C   UNL     1     -23.653   1.600  10.772  1.00  0.00    +0.130 A 
ATOM     11  N   UNL     1     -24.495   0.766  11.425  1.00  0.00    -0.215 NA
ATOM     12  C   UNL     1     -25.414   5.137   8.900  1.00  0.00    +0.176 C 
ATOM     13  C   UNL     1     -22.202   1.229  10.779  1.00  0.00    +0.090 C 
ENDBRANCH   1   3
BRANCH   1  14
ATOM     14  C   UNL     1     -27.912   0.399  12.738  1.00  0.00    +0.043 A 
ATOM     15  C   UNL     1     -29.072  -0.057  12.079  1.00  0.00    -0.028 A 
ATOM     16  C   UNL     1     -28.042   0.994  14.003  1.00  0.00    +0.026 A 
ATOM     17  C   UNL     1     -30.329   0.136  12.672  1.00  0.00    +0.005 A 
ATOM     18  C   UNL     1     -29.298   1.182  14.582  1.00  0.00    +0.002 A 
ATOM     19  C   UNL     1     -30.441   0.757  13.914  1.00  0.00    +0.000 A 
ATOM     20  C   UNL     1     -28.984  -0.730  10.736  1.00  0.00    +0.046 C 
ENDBRANCH   1  14
TORSDOF 2
ENDMDL
MODEL 8
REMARK VINA RESULT:    -7.595      1.776      3.525
REMARK INTER + INTRA:          -8.974
REMARK INTER:                  -8.506
REMARK INTRA:                  -0.468
REMARK UNBOUND:                -0.491
REMARK SMILES Cc1nc(Nc2ccccc2C)c2cnn(C)c2n1
REMARK SMILES IDX 5 1 4 3 16 4 15 5 18 6 14 7 19 8 13 9 2 10 3 11 17 12 1 13
REMARK SMILES IDX 6 14 11 15 7 16 10 17 8 18 9 19 12 20
REMARK H PARENT 5 2
ROOT
ATOM      1  N   UNL     1     -32.223   7.046   8.354  1.00  0.00    -0.339 N 
ATOM      2  H   UNL     1     -32.838   7.796   8.663  1.00  0.00    +0.168 HD
ENDROOT
BRANCH   1   3
ATOM      3  C   UNL     1     -31.001   7.648   8.016  1.00  0.00    +0.145 A 
ATOM      4  N   UNL     1     -29.708  10.581   6.597  1.00  0.00    -0.250 N 
ATOM      5  N   UNL     1     -30.993  10.994   6.487  1.00  0.00    -0.179 NA
ATOM      6  C   UNL     1     -29.577   9.337   7.151  1.00  0.00    +0.163 A 
ATOM      7  C   UNL     1     -31.686   9.965   6.990  1.00  0.00    +0.149 A 
ATOM      8  N   UNL     1     -28.440   8.658   7.375  1.00  0.00    -0.214 NA
ATOM      9  C   UNL     1     -30.862   8.910   7.431  1.00  0.00    +0.082 A 
ATOM     10  C   UNL     1     -28.671   7.444   7.908  1.00  0.00    +0.130 A 
ATOM     11  N   UNL     1     -29.876   6.921   8.232  1.00  0.00    -0.215 NA
ATOM     12  C   UNL     1     -28.647  11.441   6.136  1.00  0.00    +0.176 C 
ATOM     13  C   UNL     1     -27.470   6.601   8.212  1.00  0.00    +0.090 C 
ENDBRANCH   1   3
BRANCH   1  14
ATOM     14  C   UNL     1     -32.949   6.090   7.606  1.00  0.00    +0.043 A 
ATOM     15  C   UNL     1     -33.567   5.013   8.275  1.00  0.00    -0.028 A 
ATOM     16  C   UNL     1     -33.162   6.241   6.227  1.00  0.00    +0.026 A 
ATOM     17  C   UNL     1     -34.338   4.093   7.547  1.00  0.00    +0.005 A 
ATOM     18  C   UNL     1     -33.928   5.319   5.513  1.00  0.00    +0.002 A 
ATOM     19  C   UNL     1     -34.512   4.242   6.173  1.00  0.00    +0.000 A 
ATOM     20  C   UNL     1     -33.397   4.824   9.758  1.00  0.00    +0.046 C 
ENDBRANCH   1  14
TORSDOF 2
ENDMDL
MODEL 9
REMARK VINA RESULT:    -7.466      8.154      9.869
REMARK INTER + INTRA:          -8.829
REMARK INTER:                  -8.462
REMARK INTRA:                  -0.368
REMARK UNBOUND:                -0.491
REMARK SMILES Cc1nc(Nc2ccccc2C)c2cnn(C)c2n1
REMARK SMILES IDX 5 1 4 3 16 4 15 5 18 6 14 7 19 8 13 9 2 10 3 11 17 12 1 13
REMARK SMILES IDX 6 14 11 15 7 16 10 17 8 18 9 19 12 20
REMARK H PARENT 5 2
ROOT
ATOM      1  N   UNL     1     -27.601   2.041  12.020  1.00  0.00    -0.339 N 
ATOM      2  H   UNL     1     -27.909   2.626  11.246  1.00  0.00    +0.168 HD
ENDROOT
BRANCH   1   3
ATOM      3  C   UNL     1     -26.525   1.279  11.538  1.00  0.00    +0.145 A 
ATOM      4  N   UNL     1     -23.160   1.598  10.606  1.00  0.00    -0.250 N 
ATOM      5  N   UNL     1     -23.280   2.906  10.936  1.00  0.00    -0.179 NA
ATOM      6  C   UNL     1     -24.312   0.880  10.781  1.00  0.00    +0.163 A 
ATOM      7  C   UNL     1     -24.556   3.003  11.330  1.00  0.00    +0.149 A 
ATOM      8  N   UNL     1     -24.507  -0.425  10.530  1.00  0.00    -0.214 NA
ATOM      9  C   UNL     1     -25.246   1.775  11.268  1.00  0.00    +0.082 A 
ATOM     10  C   UNL     1     -25.772  -0.807  10.786  1.00  0.00    +0.130 A 
ATOM     11  N   UNL     1     -26.767  -0.028  11.270  1.00  0.00    -0.215 NA
ATOM     12  C   UNL     1     -21.898   1.105  10.115  1.00  0.00    +0.176 C 
ATOM     13  C   UNL     1     -26.102  -2.250  10.552  1.00  0.00    +0.090 C 
ENDBRANCH   1   3
BRANCH   1  14
ATOM     14  C   UNL     1     -28.712   1.586  12.766  1.00  0.00    +0.043 A 
ATOM     15  C   UNL     1     -29.896   1.222  12.092  1.00  0.00    -0.028 A 
ATOM     16  C   UNL     1     -28.636   1.386  14.154  1.00  0.00    +0.026 A 
ATOM     17  C   UNL     1     -30.984   0.715  12.821  1.00  0.00    +0.005 A 
ATOM     18  C   UNL     1     -29.724   0.883  14.868  1.00  0.00    +0.002 A 
ATOM     19  C   UNL     1     -30.899   0.553  14.202  1.00  0.00    +0.000 A 
ATOM     20  C   UNL     1     -30.019   1.387  10.601  1.00  0.00    +0.046 C 
ENDBRANCH   1  14
TORSDOF 2
ENDMDL
