REMARK SMILES CC(C)NC[C@@H](O)COc1cccc2ccccc12
REMARK SMILES IDX 5 1 4 2 2 4 1 5 3 6 6 7 8 8 9 9 10 10 11 11 19 12 12 13
REMARK SMILES IDX 18 14 14 15 13 16 17 17 15 18 16 19 7 20
REMARK H PARENT 4 3 7 21
ROOT
ATOM      1  C   UNL     1      -2.744  -0.231   0.760  1.00  0.00    +0.116 C 
ENDROOT
BRANCH   1   2
ATOM      2  N   UNL     1      -3.860  -0.928   0.099  1.00  0.00    -0.312 NA
ATOM      3  H   UNL     1      -3.578  -1.888  -0.097  1.00  0.00    +0.123 HD
BRANCH   2   4
ATOM      4  C   UNL     1      -4.335  -0.318  -1.151  1.00  0.00    +0.047 C 
ATOM      5  C   UNL     1      -4.882   1.097  -0.958  1.00  0.00    +0.024 C 
ATOM      6  C   UNL     1      -5.443  -1.217  -1.712  1.00  0.00    +0.024 C 
ENDBRANCH   2   4
ENDBRANCH   1   2
BRANCH   1   7
ATOM      7  C   UNL     1      -1.384  -0.288   0.033  1.00  0.00    +0.165 C 
BRANCH   7   8
ATOM      8  C   UNL     1      -0.253   0.161   0.971  1.00  0.00    +0.262 C 
BRANCH   8   9
ATOM      9  O   UNL     1       0.980  -0.003   0.259  1.00  0.00    -0.490 OA
BRANCH   9  10
ATOM     10  C   UNL     1       2.147   0.300   0.919  1.00  0.00    +0.127 A 
ATOM     11  C   UNL     1       2.197   0.854   2.203  1.00  0.00    +0.047 A 
ATOM     12  C   UNL     1       3.349   0.028   0.215  1.00  0.00    +0.024 A 
ATOM     13  C   UNL     1       3.425   1.137   2.800  1.00  0.00    +0.004 A 
ATOM     14  C   UNL     1       3.371  -0.529  -1.083  1.00  0.00    +0.012 A 
ATOM     15  C   UNL     1       4.590   0.321   0.832  1.00  0.00    -0.015 A 
ATOM     16  C   UNL     1       4.611   0.873   2.120  1.00  0.00    +0.009 A 
ATOM     17  C   UNL     1       4.572  -0.785  -1.749  1.00  0.00    +0.001 A 
ATOM     18  C   UNL     1       5.790   0.058   0.150  1.00  0.00    +0.009 A 
ATOM     19  C   UNL     1       5.781  -0.491  -1.132  1.00  0.00    +0.001 A 
ENDBRANCH   9  10
ENDBRANCH   8   9
ENDBRANCH   7   8
BRANCH   7  20
ATOM     20  O   UNL     1      -1.388   0.576  -1.113  1.00  0.00    -0.388 OA
ATOM     21  H   UNL     1      -0.464   0.612  -1.425  1.00  0.00    +0.211 HD
ENDBRANCH   7  20
ENDBRANCH   1   7
TORSDOF 7
