REMARK SMILES Cc1nc(NC(C)(C)C)c2cnn(-c3ccccc3)c2n1
REMARK SMILES IDX 5 1 4 3 2 4 3 5 21 6 20 7 10 8 13 9 11 10 12 11 1 12 14 13
REMARK SMILES IDX 15 14 19 15 16 16 18 17 17 18 6 19 7 20 8 21 9 22
REMARK H PARENT 5 2
ROOT
ATOM      1  N   UNL     1      -2.475  -0.019   0.811  1.00  0.00    -0.365 N 
ATOM      2  H   UNL     1      -2.354  -0.390   1.746  1.00  0.00    +0.162 HD
ENDROOT
BRANCH   1   3
ATOM      3  C   UNL     1      -1.277   0.078   0.118  1.00  0.00    +0.141 A 
ATOM      4  C   UNL     1      -0.073   0.246  -1.883  1.00  0.00    +0.130 A 
ATOM      5  N   UNL     1      -1.250   0.144  -1.231  1.00  0.00    -0.216 NA
ATOM      6  N   UNL     1       1.147   0.271  -1.324  1.00  0.00    -0.213 NA
ATOM      7  C   UNL     1       1.111   0.214   0.022  1.00  0.00    +0.168 A 
ATOM      8  C   UNL     1      -0.043   0.122   0.783  1.00  0.00    +0.082 A 
ATOM      9  N   UNL     1       2.179   0.235   0.920  1.00  0.00    -0.215 N 
ATOM     10  C   UNL     1       0.409   0.105   2.111  1.00  0.00    +0.150 A 
ATOM     11  N   UNL     1       1.735   0.162   2.215  1.00  0.00    -0.174 NA
ATOM     12  C   UNL     1      -0.136   0.285  -3.379  1.00  0.00    +0.090 C 
BRANCH   9  13
ATOM     13  C   UNL     1       3.583   0.316   0.663  1.00  0.00    +0.067 A 
ATOM     14  C   UNL     1       4.099   0.391  -0.637  1.00  0.00    +0.028 A 
ATOM     15  C   UNL     1       4.479   0.321   1.748  1.00  0.00    +0.028 A 
ATOM     16  C   UNL     1       5.480   0.468  -0.846  1.00  0.00    +0.002 A 
ATOM     17  C   UNL     1       5.857   0.398   1.533  1.00  0.00    +0.002 A 
ATOM     18  C   UNL     1       6.357   0.472   0.236  1.00  0.00    +0.000 A 
ENDBRANCH   9  13
ENDBRANCH   1   3
BRANCH   1  19
ATOM     19  C   UNL     1      -3.749  -0.387   0.174  1.00  0.00    +0.030 C 
ATOM     20  C   UNL     1      -4.213   0.679  -0.829  1.00  0.00    +0.034 C 
ATOM     21  C   UNL     1      -4.800  -0.451   1.304  1.00  0.00    +0.034 C 
ATOM     22  C   UNL     1      -3.668  -1.773  -0.480  1.00  0.00    +0.034 C 
ENDBRANCH   1  19
TORSDOF 3
