MODEL 1
REMARK VINA RESULT:    -9.581      0.000      0.000
REMARK INTER + INTRA:         -10.466
REMARK INTER:                 -10.421
REMARK INTRA:                  -0.046
REMARK UNBOUND:                -0.046
REMARK SMILES OCc1cc2ccccc2c2ccccc12
REMARK SMILES IDX 1 1 2 3 3 4 16 5 4 6 15 7 11 8 5 9 14 10 12 11 10 12 6 13
REMARK SMILES IDX 13 14 9 15 7 16 8 17
REMARK H PARENT 1 2
ROOT
ATOM      1  O   UNL     1     -31.795   9.586   6.176  1.00  0.00    -0.392 OA
ATOM      2  H   UNL     1     -32.529   9.020   6.475  1.00  0.00    +0.211 HD
ENDROOT
BRANCH   1   3
ATOM      3  C   UNL     1     -30.979   9.828   7.322  1.00  0.00    +0.192 C 
BRANCH   3   4
ATOM      4  C   UNL     1     -29.505   9.669   7.009  1.00  0.00    -0.014 A 
ATOM      5  C   UNL     1     -28.739  10.681   6.374  1.00  0.00    -0.012 A 
ATOM      6  C   UNL     1     -28.871   8.487   7.429  1.00  0.00    +0.015 A 
ATOM      7  C   UNL     1     -29.298  11.927   5.995  1.00  0.00    +0.009 A 
ATOM      8  C   UNL     1     -27.355  10.450   6.110  1.00  0.00    -0.010 A 
ATOM      9  C   UNL     1     -27.520   8.241   7.185  1.00  0.00    -0.017 A 
ATOM     10  C   UNL     1     -28.552  12.917   5.356  1.00  0.00    +0.001 A 
ATOM     11  C   UNL     1     -26.633  11.481   5.455  1.00  0.00    +0.009 A 
ATOM     12  C   UNL     1     -26.740   9.209   6.513  1.00  0.00    -0.011 A 
ATOM     13  C   UNL     1     -26.953   7.027   7.611  1.00  0.00    +0.009 A 
ATOM     14  C   UNL     1     -27.217  12.692   5.081  1.00  0.00    +0.001 A 
ATOM     15  C   UNL     1     -25.376   8.876   6.296  1.00  0.00    +0.009 A 
ATOM     16  C   UNL     1     -25.611   6.738   7.381  1.00  0.00    +0.001 A 
ATOM     17  C   UNL     1     -24.821   7.664   6.720  1.00  0.00    +0.001 A 
ENDBRANCH   3   4
ENDBRANCH   1   3
TORSDOF 2
ENDMDL
MODEL 2
REMARK VINA RESULT:    -9.250      1.677      4.563
REMARK INTER + INTRA:         -10.106
REMARK INTER:                 -10.052
REMARK INTRA:                  -0.055
REMARK UNBOUND:                -0.046
REMARK SMILES OCc1cc2ccccc2c2ccccc12
REMARK SMILES IDX 1 1 2 3 3 4 16 5 4 6 15 7 11 8 5 9 14 10 12 11 10 12 6 13
REMARK SMILES IDX 13 14 9 15 7 16 8 17
REMARK H PARENT 1 2
ROOT
ATOM      1  O   UNL     1     -28.244  13.557   4.691  1.00  0.00    -0.392 OA
ATOM      2  H   UNL     1     -29.126  13.283   4.998  1.00  0.00    +0.211 HD
ENDROOT
BRANCH   1   3
ATOM      3  C   UNL     1     -27.303  12.729   5.373  1.00  0.00    +0.192 C 
BRANCH   3   4
ATOM      4  C   UNL     1     -27.948  11.465   5.908  1.00  0.00    -0.014 A 
ATOM      5  C   UNL     1     -27.211  10.285   6.189  1.00  0.00    -0.012 A 
ATOM      6  C   UNL     1     -29.324  11.502   6.190  1.00  0.00    +0.015 A 
ATOM      7  C   UNL     1     -25.808  10.206   6.001  1.00  0.00    +0.009 A 
ATOM      8  C   UNL     1     -27.895   9.135   6.686  1.00  0.00    -0.010 A 
ATOM      9  C   UNL     1     -30.011  10.391   6.680  1.00  0.00    -0.017 A 
ATOM     10  C   UNL     1     -25.084   9.044   6.261  1.00  0.00    +0.001 A 
ATOM     11  C   UNL     1     -27.121   7.971   6.934  1.00  0.00    +0.009 A 
ATOM     12  C   UNL     1     -29.315   9.186   6.926  1.00  0.00    -0.011 A 
ATOM     13  C   UNL     1     -31.394  10.488   6.918  1.00  0.00    +0.009 A 
ATOM     14  C   UNL     1     -25.742   7.921   6.724  1.00  0.00    +0.001 A 
ATOM     15  C   UNL     1     -30.092   8.101   7.414  1.00  0.00    +0.009 A 
ATOM     16  C   UNL     1     -32.119   9.402   7.399  1.00  0.00    +0.001 A 
ATOM     17  C   UNL     1     -31.467   8.205   7.646  1.00  0.00    +0.001 A 
ENDBRANCH   3   4
ENDBRANCH   1   3
TORSDOF 2
ENDMDL
MODEL 3
REMARK VINA RESULT:    -9.092      1.629      3.399
REMARK INTER + INTRA:          -9.935
REMARK INTER:                  -9.879
REMARK INTRA:                  -0.056
REMARK UNBOUND:                -0.046
REMARK SMILES OCc1cc2ccccc2c2ccccc12
REMARK SMILES IDX 1 1 2 3 3 4 16 5 4 6 15 7 11 8 5 9 14 10 12 11 10 12 6 13
REMARK SMILES IDX 13 14 9 15 7 16 8 17
REMARK H PARENT 1 2
ROOT
ATOM      1  O   UNL     1     -27.844  13.316   4.446  1.00  0.00    -0.392 OA
ATOM      2  H   UNL     1     -27.890  12.646   3.741  1.00  0.00    +0.211 HD
ENDROOT
BRANCH   1   3
ATOM      3  C   UNL     1     -28.719  12.872   5.482  1.00  0.00    +0.192 C 
BRANCH   3   4
ATOM      4  C   UNL     1     -28.373  11.473   5.954  1.00  0.00    -0.014 A 
ATOM      5  C   UNL     1     -29.348  10.559   6.432  1.00  0.00    -0.012 A 
ATOM      6  C   UNL     1     -27.034  11.060   5.848  1.00  0.00    +0.015 A 
ATOM      7  C   UNL     1     -30.726  10.885   6.491  1.00  0.00    +0.009 A 
ATOM      8  C   UNL     1     -28.938   9.261   6.863  1.00  0.00    -0.010 A 
ATOM      9  C   UNL     1     -26.613   9.796   6.260  1.00  0.00    -0.017 A 
ATOM     10  C   UNL     1     -31.684   9.995   6.975  1.00  0.00    +0.001 A 
ATOM     11  C   UNL     1     -29.944   8.388   7.353  1.00  0.00    +0.009 A 
ATOM     12  C   UNL     1     -27.551   8.878   6.784  1.00  0.00    -0.011 A 
ATOM     13  C   UNL     1     -25.253   9.454   6.150  1.00  0.00    +0.009 A 
ATOM     14  C   UNL     1     -31.292   8.745   7.411  1.00  0.00    +0.001 A 
ATOM     15  C   UNL     1     -27.037   7.617   7.189  1.00  0.00    +0.009 A 
ATOM     16  C   UNL     1     -24.789   8.206   6.556  1.00  0.00    +0.001 A 
ATOM     17  C   UNL     1     -25.682   7.286   7.079  1.00  0.00    +0.001 A 
ENDBRANCH   3   4
ENDBRANCH   1   3
TORSDOF 2
ENDMDL
MODEL 4
REMARK VINA RESULT:    -8.837      1.880      4.072
REMARK INTER + INTRA:          -9.658
REMARK INTER:                  -9.624
REMARK INTRA:                  -0.034
REMARK UNBOUND:                -0.046
REMARK SMILES OCc1cc2ccccc2c2ccccc12
REMARK SMILES IDX 1 1 2 3 3 4 16 5 4 6 15 7 11 8 5 9 14 10 12 11 10 12 6 13
REMARK SMILES IDX 13 14 9 15 7 16 8 17
REMARK H PARENT 1 2
ROOT
ATOM      1  O   UNL     1     -25.480   8.429   5.082  1.00  0.00    -0.392 OA
ATOM      2  H   UNL     1     -25.489   9.247   4.553  1.00  0.00    +0.211 HD
ENDROOT
BRANCH   1   3
ATOM      3  C   UNL     1     -25.809   8.809   6.418  1.00  0.00    +0.192 C 
BRANCH   3   4
ATOM      4  C   UNL     1     -27.250   9.266   6.536  1.00  0.00    -0.014 A 
ATOM      5  C   UNL     1     -27.681  10.560   6.146  1.00  0.00    -0.012 A 
ATOM      6  C   UNL     1     -28.195   8.333   6.997  1.00  0.00    +0.015 A 
ATOM      7  C   UNL     1     -26.793  11.522   5.601  1.00  0.00    +0.009 A 
ATOM      8  C   UNL     1     -29.056  10.914   6.295  1.00  0.00    -0.010 A 
ATOM      9  C   UNL     1     -29.544   8.657   7.147  1.00  0.00    -0.017 A 
ATOM     10  C   UNL     1     -27.211  12.799   5.232  1.00  0.00    +0.001 A 
ATOM     11  C   UNL     1     -29.439  12.226   5.911  1.00  0.00    +0.009 A 
ATOM     12  C   UNL     1     -29.998   9.952   6.811  1.00  0.00    -0.011 A 
ATOM     13  C   UNL     1     -30.435   7.684   7.635  1.00  0.00    +0.009 A 
ATOM     14  C   UNL     1     -28.536  13.154   5.391  1.00  0.00    +0.001 A 
ATOM     15  C   UNL     1     -31.384  10.201   7.003  1.00  0.00    +0.009 A 
ATOM     16  C   UNL     1     -31.786   7.966   7.808  1.00  0.00    +0.001 A 
ATOM     17  C   UNL     1     -32.262   9.229   7.493  1.00  0.00    +0.001 A 
ENDBRANCH   3   4
ENDBRANCH   1   3
TORSDOF 2
ENDMDL
MODEL 5
REMARK VINA RESULT:    -8.834      0.717      4.231
REMARK INTER + INTRA:          -9.654
REMARK INTER:                  -9.598
REMARK INTRA:                  -0.056
REMARK UNBOUND:                -0.046
REMARK SMILES OCc1cc2ccccc2c2ccccc12
REMARK SMILES IDX 1 1 2 3 3 4 16 5 4 6 15 7 11 8 5 9 14 10 12 11 10 12 6 13
REMARK SMILES IDX 13 14 9 15 7 16 8 17
REMARK H PARENT 1 2
ROOT
ATOM      1  O   UNL     1     -31.381   8.337   7.814  1.00  0.00    -0.392 OA
ATOM      2  H   UNL     1     -31.521   8.584   8.746  1.00  0.00    +0.211 HD
ENDROOT
BRANCH   1   3
ATOM      3  C   UNL     1     -30.075   7.767   7.739  1.00  0.00    +0.192 C 
BRANCH   3   4
ATOM      4  C   UNL     1     -29.063   8.744   7.175  1.00  0.00    -0.014 A 
ATOM      5  C   UNL     1     -27.688   8.426   7.024  1.00  0.00    -0.012 A 
ATOM      6  C   UNL     1     -29.536   9.991   6.731  1.00  0.00    +0.015 A 
ATOM      7  C   UNL     1     -27.161   7.160   7.379  1.00  0.00    +0.009 A 
ATOM      8  C   UNL     1     -26.799   9.406   6.488  1.00  0.00    -0.010 A 
ATOM      9  C   UNL     1     -28.685  10.961   6.201  1.00  0.00    -0.017 A 
ATOM     10  C   UNL     1     -25.808   6.851   7.247  1.00  0.00    +0.001 A 
ATOM     11  C   UNL     1     -25.429   9.053   6.374  1.00  0.00    +0.009 A 
ATOM     12  C   UNL     1     -27.303  10.694   6.080  1.00  0.00    -0.011 A 
ATOM     13  C   UNL     1     -29.219  12.198   5.797  1.00  0.00    +0.009 A 
ATOM     14  C   UNL     1     -24.938   7.800   6.747  1.00  0.00    +0.001 A 
ATOM     15  C   UNL     1     -26.506  11.739   5.541  1.00  0.00    +0.009 A 
ATOM     16  C   UNL     1     -28.405  13.197   5.271  1.00  0.00    +0.001 A 
ATOM     17  C   UNL     1     -27.044  12.968   5.144  1.00  0.00    +0.001 A 
ENDBRANCH   3   4
ENDBRANCH   1   3
TORSDOF 2
ENDMDL
MODEL 6
REMARK VINA RESULT:    -8.500      1.784      3.307
REMARK INTER + INTRA:          -9.291
REMARK INTER:                  -9.714
REMARK INTRA:                   0.423
REMARK UNBOUND:                -0.046
REMARK SMILES OCc1cc2ccccc2c2ccccc12
REMARK SMILES IDX 1 1 2 3 3 4 16 5 4 6 15 7 11 8 5 9 14 10 12 11 10 12 6 13
REMARK SMILES IDX 13 14 9 15 7 16 8 17
REMARK H PARENT 1 2
ROOT
ATOM      1  O   UNL     1     -26.592  12.141   4.237  1.00  0.00    -0.392 OA
ATOM      2  H   UNL     1     -27.412  11.616   4.258  1.00  0.00    +0.211 HD
ENDROOT
BRANCH   1   3
ATOM      3  C   UNL     1     -25.792  11.683   5.327  1.00  0.00    +0.192 C 
BRANCH   3   4
ATOM      4  C   UNL     1     -26.417  10.491   6.025  1.00  0.00    -0.014 A 
ATOM      5  C   UNL     1     -27.797  10.427   6.352  1.00  0.00    -0.012 A 
ATOM      6  C   UNL     1     -25.592   9.386   6.297  1.00  0.00    +0.015 A 
ATOM      7  C   UNL     1     -28.699  11.474   6.036  1.00  0.00    +0.009 A 
ATOM      8  C   UNL     1     -28.306   9.269   7.014  1.00  0.00    -0.010 A 
ATOM      9  C   UNL     1     -26.070   8.244   6.940  1.00  0.00    -0.017 A 
ATOM     10  C   UNL     1     -30.051  11.421   6.370  1.00  0.00    +0.001 A 
ATOM     11  C   UNL     1     -29.687   9.258   7.341  1.00  0.00    +0.009 A 
ATOM     12  C   UNL     1     -27.428   8.167   7.320  1.00  0.00    -0.011 A 
ATOM     13  C   UNL     1     -25.185   7.182   7.204  1.00  0.00    +0.009 A 
ATOM     14  C   UNL     1     -30.546  10.312   7.028  1.00  0.00    +0.001 A 
ATOM     15  C   UNL     1     -27.830   6.974   7.979  1.00  0.00    +0.009 A 
ATOM     16  C   UNL     1     -25.618   6.028   7.850  1.00  0.00    +0.001 A 
ATOM     17  C   UNL     1     -26.943   5.924   8.241  1.00  0.00    +0.001 A 
ENDBRANCH   3   4
ENDBRANCH   1   3
TORSDOF 2
ENDMDL
MODEL 7
REMARK VINA RESULT:    -7.294      7.587     10.263
REMARK INTER + INTRA:          -7.979
REMARK INTER:                  -7.924
REMARK INTRA:                  -0.055
REMARK UNBOUND:                -0.046
REMARK SMILES OCc1cc2ccccc2c2ccccc12
REMARK SMILES IDX 1 1 2 3 3 4 16 5 4 6 15 7 11 8 5 9 14 10 12 11 10 12 6 13
REMARK SMILES IDX 13 14 9 15 7 16 8 17
REMARK H PARENT 1 2
ROOT
ATOM      1  O   UNL     1     -32.017   1.853   9.287  1.00  0.00    -0.392 OA
ATOM      2  H   UNL     1     -31.473   1.771   8.484  1.00  0.00    +0.211 HD
ENDROOT
BRANCH   1   3
ATOM      3  C   UNL     1     -31.507   0.902  10.221  1.00  0.00    +0.192 C 
BRANCH   3   4
ATOM      4  C   UNL     1     -30.242   1.395  10.895  1.00  0.00    -0.014 A 
ATOM      5  C   UNL     1     -29.930   1.107  12.249  1.00  0.00    -0.012 A 
ATOM      6  C   UNL     1     -29.322   2.115  10.114  1.00  0.00    +0.015 A 
ATOM      7  C   UNL     1     -30.777   0.322  13.071  1.00  0.00    +0.009 A 
ATOM      8  C   UNL     1     -28.720   1.614  12.812  1.00  0.00    -0.010 A 
ATOM      9  C   UNL     1     -28.132   2.616  10.642  1.00  0.00    -0.017 A 
ATOM     10  C   UNL     1     -30.481   0.051  14.406  1.00  0.00    +0.001 A 
ATOM     11  C   UNL     1     -28.458   1.319  14.175  1.00  0.00    +0.009 A 
ATOM     12  C   UNL     1     -27.813   2.387  11.999  1.00  0.00    -0.011 A 
ATOM     13  C   UNL     1     -27.265   3.349   9.811  1.00  0.00    +0.009 A 
ATOM     14  C   UNL     1     -29.321   0.554  14.961  1.00  0.00    +0.001 A 
ATOM     15  C   UNL     1     -26.588   2.940  12.458  1.00  0.00    +0.009 A 
ATOM     16  C   UNL     1     -26.072   3.873  10.298  1.00  0.00    +0.001 A 
ATOM     17  C   UNL     1     -25.734   3.671  11.626  1.00  0.00    +0.001 A 
ENDBRANCH   3   4
ENDBRANCH   1   3
TORSDOF 2
ENDMDL
MODEL 8
REMARK VINA RESULT:    -7.141      7.605     10.778
REMARK INTER + INTRA:          -7.813
REMARK INTER:                  -7.742
REMARK INTRA:                  -0.071
REMARK UNBOUND:                -0.046
REMARK SMILES OCc1cc2ccccc2c2ccccc12
REMARK SMILES IDX 1 1 2 3 3 4 16 5 4 6 15 7 11 8 5 9 14 10 12 11 10 12 6 13
REMARK SMILES IDX 13 14 9 15 7 16 8 17
REMARK H PARENT 1 2
ROOT
ATOM      1  O   UNL     1     -33.677   5.459   5.965  1.00  0.00    -0.392 OA
ATOM      2  H   UNL     1     -33.716   4.488   6.027  1.00  0.00    +0.211 HD
ENDROOT
BRANCH   1   3
ATOM      3  C   UNL     1     -33.430   5.937   7.287  1.00  0.00    +0.192 C 
BRANCH   3   4
ATOM      4  C   UNL     1     -34.390   5.336   8.294  1.00  0.00    -0.014 A 
ATOM      5  C   UNL     1     -34.013   4.311   9.199  1.00  0.00    -0.012 A 
ATOM      6  C   UNL     1     -35.687   5.873   8.361  1.00  0.00    +0.015 A 
ATOM      7  C   UNL     1     -32.700   3.779   9.237  1.00  0.00    +0.009 A 
ATOM      8  C   UNL     1     -34.981   3.795  10.114  1.00  0.00    -0.010 A 
ATOM      9  C   UNL     1     -36.647   5.386   9.250  1.00  0.00    -0.017 A 
ATOM     10  C   UNL     1     -32.331   2.760  10.114  1.00  0.00    +0.001 A 
ATOM     11  C   UNL     1     -34.565   2.755  10.987  1.00  0.00    +0.009 A 
ATOM     12  C   UNL     1     -36.318   4.334  10.133  1.00  0.00    -0.011 A 
ATOM     13  C   UNL     1     -37.934   5.953   9.249  1.00  0.00    +0.009 A 
ATOM     14  C   UNL     1     -33.267   2.244  10.989  1.00  0.00    +0.001 A 
ATOM     15  C   UNL     1     -37.355   3.891  10.996  1.00  0.00    +0.009 A 
ATOM     16  C   UNL     1     -38.924   5.492  10.113  1.00  0.00    +0.001 A 
ATOM     17  C   UNL     1     -38.634   4.457  10.988  1.00  0.00    +0.001 A 
ENDBRANCH   3   4
ENDBRANCH   1   3
TORSDOF 2
ENDMDL
MODEL 9
REMARK VINA RESULT:    -7.061      8.009     10.210
REMARK INTER + INTRA:          -7.726
REMARK INTER:                  -7.665
REMARK INTRA:                  -0.060
REMARK UNBOUND:                -0.046
REMARK SMILES OCc1cc2ccccc2c2ccccc12
REMARK SMILES IDX 1 1 2 3 3 4 16 5 4 6 15 7 11 8 5 9 14 10 12 11 10 12 6 13
REMARK SMILES IDX 13 14 9 15 7 16 8 17
REMARK H PARENT 1 2
ROOT
ATOM      1  O   UNL     1     -34.331   5.915   6.176  1.00  0.00    -0.392 OA
ATOM      2  H   UNL     1     -33.665   5.232   6.372  1.00  0.00    +0.211 HD
ENDROOT
BRANCH   1   3
ATOM      3  C   UNL     1     -34.777   6.417   7.435  1.00  0.00    +0.192 C 
BRANCH   3   4
ATOM      4  C   UNL     1     -34.819   5.333   8.493  1.00  0.00    -0.014 A 
ATOM      5  C   UNL     1     -35.993   5.017   9.225  1.00  0.00    -0.012 A 
ATOM      6  C   UNL     1     -33.653   4.577   8.701  1.00  0.00    +0.015 A 
ATOM      7  C   UNL     1     -37.223   5.688   9.009  1.00  0.00    +0.009 A 
ATOM      8  C   UNL     1     -35.948   3.984  10.209  1.00  0.00    -0.010 A 
ATOM      9  C   UNL     1     -33.587   3.561   9.655  1.00  0.00    -0.017 A 
ATOM     10  C   UNL     1     -38.374   5.391   9.739  1.00  0.00    +0.001 A 
ATOM     11  C   UNL     1     -37.140   3.716  10.932  1.00  0.00    +0.009 A 
ATOM     12  C   UNL     1     -34.726   3.252  10.433  1.00  0.00    -0.011 A 
ATOM     13  C   UNL     1     -32.381   2.858   9.829  1.00  0.00    +0.009 A 
ATOM     14  C   UNL     1     -38.331   4.405  10.705  1.00  0.00    +0.001 A 
ATOM     15  C   UNL     1     -34.570   2.212  11.388  1.00  0.00    +0.009 A 
ATOM     16  C   UNL     1     -32.270   1.842  10.774  1.00  0.00    +0.001 A 
ATOM     17  C   UNL     1     -33.366   1.520  11.557  1.00  0.00    +0.001 A 
ENDBRANCH   3   4
ENDBRANCH   1   3
TORSDOF 2
ENDMDL
