REMARK SMILES CC(=O)OC[C@H]1O[C@@H](OC(C)=O)[C@@H](NC(=O)OCc2ccccc2)[C@@H](OC(C)=O)[C@H]1OC(C)=O
REMARK SMILES IDX 6 1 7 2 8 3 13 4 25 5 30 6 5 7 4 8 2 9 3 10 1 11 31 12 32 13
REMARK SMILES IDX 34 14 33 15 9 16 10 17 12 18 11 19 26 20 27 21 29 22 28 23
REMARK SMILES IDX 14 24 15 25 16 26 17 28 18 29 19 30 20 31 24 32 21 33 23 34
REMARK SMILES IDX 22 35
REMARK H PARENT 14 27
ROOT
ATOM      1  C   UNL     1      -2.464   1.512   0.186  1.00  0.00    +0.205 C 
ATOM      2  O   UNL     1      -2.096   0.803   1.388  1.00  0.00    -0.330 OA
ATOM      3  C   UNL     1      -0.968  -0.084   1.284  1.00  0.00    +0.337 C 
ATOM      4  C   UNL     1      -0.023   0.333   0.128  1.00  0.00    +0.199 C 
ATOM      5  C   UNL     1      -0.765   0.306  -1.228  1.00  0.00    +0.249 C 
ATOM      6  C   UNL     1      -2.270   0.656  -1.082  1.00  0.00    +0.252 C 
ENDROOT
BRANCH   1   7
ATOM      7  C   UNL     1      -3.905   2.015   0.361  1.00  0.00    +0.269 C 
BRANCH   7   8
ATOM      8  O   UNL     1      -3.997   2.974   1.437  1.00  0.00    -0.463 OA
BRANCH   8   9
ATOM      9  C   UNL     1      -3.552   4.225   1.144  1.00  0.00    +0.302 C 
ATOM     10  O   UNL     1      -3.078   4.573   0.071  1.00  0.00    -0.253 OA
ATOM     11  C   UNL     1      -3.707   5.120   2.333  1.00  0.00    +0.139 C 
ENDBRANCH   8   9
ENDBRANCH   7   8
ENDBRANCH   1   7
BRANCH   6  12
ATOM     12  O   UNL     1      -3.031  -0.575  -0.997  1.00  0.00    -0.456 OA
BRANCH  12  13
ATOM     13  C   UNL     1      -4.264  -0.593  -1.562  1.00  0.00    +0.303 C 
ATOM     14  O   UNL     1      -4.816   0.361  -2.089  1.00  0.00    -0.253 OA
ATOM     15  C   UNL     1      -4.862  -1.960  -1.437  1.00  0.00    +0.139 C 
ENDBRANCH  12  13
ENDBRANCH   6  12
BRANCH   3  16
ATOM     16  O   UNL     1      -1.473  -1.416   1.095  1.00  0.00    -0.433 OA
BRANCH  16  17
ATOM     17  C   UNL     1      -0.758  -2.425   1.644  1.00  0.00    +0.305 C 
ATOM     18  O   UNL     1       0.294  -2.314   2.255  1.00  0.00    -0.253 OA
ATOM     19  C   UNL     1      -1.443  -3.731   1.381  1.00  0.00    +0.139 C 
ENDBRANCH  16  17
ENDBRANCH   3  16
BRANCH   5  20
ATOM     20  O   UNL     1      -0.575  -0.983  -1.866  1.00  0.00    -0.456 OA
BRANCH  20  21
ATOM     21  C   UNL     1      -0.791  -1.003  -3.209  1.00  0.00    +0.303 C 
ATOM     22  O   UNL     1      -1.127  -0.040  -3.882  1.00  0.00    -0.253 OA
ATOM     23  C   UNL     1      -0.597  -2.387  -3.745  1.00  0.00    +0.139 C 
ENDBRANCH  20  21
ENDBRANCH   5  20
BRANCH   4  24
ATOM     24  N   UNL     1       1.235  -0.402   0.073  1.00  0.00    -0.308 N 
ATOM     25  C   UNL     1       2.219  -0.201   0.994  1.00  0.00    +0.408 C 
ATOM     26  O   UNL     1       2.224   0.709   1.810  1.00  0.00    -0.225 OA
ATOM     27  H   UNL     1       1.275  -1.292  -0.405  1.00  0.00    +0.167 HD
BRANCH  25  28
ATOM     28  O   UNL     1       3.153  -1.166   0.859  1.00  0.00    -0.445 OA
BRANCH  28  29
ATOM     29  C   UNL     1       4.233  -1.113   1.798  1.00  0.00    +0.270 C 
BRANCH  29  30
ATOM     30  C   UNL     1       5.436  -0.482   1.144  1.00  0.00    -0.011 A 
ATOM     31  C   UNL     1       5.672   0.893   1.273  1.00  0.00    +0.007 A 
ATOM     32  C   UNL     1       6.312  -1.253   0.367  1.00  0.00    +0.007 A 
ATOM     33  C   UNL     1       6.776   1.482   0.655  1.00  0.00    +0.000 A 
ATOM     34  C   UNL     1       7.416  -0.662  -0.250  1.00  0.00    +0.000 A 
ATOM     35  C   UNL     1       7.649   0.704  -0.103  1.00  0.00    +0.000 A 
ENDBRANCH  29  30
ENDBRANCH  28  29
ENDBRANCH  25  28
ENDBRANCH   4  24
TORSDOF 13
