REMARK SMILES O=C1c2ccccc2C(=O)N1CCCCBr
REMARK SMILES IDX 14 1 15 2 16 3 13 4 12 5 11 6 2 7 9 8 1 9 3 10 8 11 10 12
REMARK SMILES IDX 4 13 7 14 5 15 6 16
REMARK H PARENT
ROOT
ATOM      1  C   UNL     1       3.589  -0.623   0.095  1.00  0.00    +0.013 C 
ENDROOT
BRANCH   1   2
ATOM      2  C   UNL     1       4.628   0.482   0.203  1.00  0.00    +0.081 C 
ATOM      3 Br   UNL     1       4.771   1.482  -1.460  1.00  0.00    -0.093 Br
ENDBRANCH   1   2
BRANCH   1   4
ATOM      4  C   UNL     1       2.151  -0.097   0.113  1.00  0.00    +0.023 C 
BRANCH   4   5
ATOM      5  C   UNL     1       1.141  -1.246   0.092  1.00  0.00    +0.129 C 
BRANCH   5   6
ATOM      6  N   UNL     1      -0.222  -0.753   0.130  1.00  0.00    -0.274 N 
ATOM      7  C   UNL     1      -0.885  -0.429   1.283  1.00  0.00    +0.261 C 
ATOM      8  C   UNL     1      -0.964  -0.465  -0.983  1.00  0.00    +0.261 C 
ATOM      9  O   UNL     1      -0.506  -0.511   2.436  1.00  0.00    -0.269 OA
ATOM     10  C   UNL     1      -2.195   0.078   0.879  1.00  0.00    +0.053 A 
ATOM     11  C   UNL     1      -2.243   0.056  -0.504  1.00  0.00    +0.053 A 
ATOM     12  O   UNL     1      -0.671  -0.588  -2.156  1.00  0.00    -0.269 OA
ATOM     13  C   UNL     1      -3.255   0.528   1.641  1.00  0.00    +0.015 A 
ATOM     14  C   UNL     1      -3.354   0.484  -1.203  1.00  0.00    +0.015 A 
ATOM     15  C   UNL     1      -4.393   0.965   0.956  1.00  0.00    +0.001 A 
ATOM     16  C   UNL     1      -4.443   0.943  -0.454  1.00  0.00    +0.001 A 
ENDBRANCH   5   6
ENDBRANCH   4   5
ENDBRANCH   1   4
TORSDOF 4
