REMARK SMILES O=C1c2ccccc2C(=O)N1[N+](=O)[O-]
REMARK SMILES IDX 14 1 12 2 13 3 11 4 2 5 9 6 1 7 3 8 8 9 10 10 4 11 7 12 5 13
REMARK SMILES IDX 6 14
REMARK H PARENT
ROOT
ATOM      1  O   UNL     1       3.843   0.847  -0.809  1.00  0.00    -0.234 OA
ATOM      2  N   UNL     1       3.281  -0.182  -0.433  1.00  0.00    +0.176 N 
ATOM      3  O   UNL     1       3.806  -1.271  -0.202  1.00  0.00    -0.234 OA
ENDROOT
BRANCH   2   4
ATOM      4  N   UNL     1       1.906  -0.106  -0.252  1.00  0.00    +0.018 N 
ATOM      5  C   UNL     1       1.183   1.031  -0.468  1.00  0.00    +0.324 C 
ATOM      6  C   UNL     1       1.145  -1.160   0.160  1.00  0.00    +0.324 C 
ATOM      7  O   UNL     1       1.479   2.153  -0.830  1.00  0.00    -0.262 OA
ATOM      8  C   UNL     1      -0.203   0.676  -0.162  1.00  0.00    +0.059 A 
ATOM      9  C   UNL     1      -0.226  -0.652   0.219  1.00  0.00    +0.059 A 
ATOM     10  O   UNL     1       1.400  -2.313   0.450  1.00  0.00    -0.262 OA
ATOM     11  C   UNL     1      -1.351   1.443  -0.210  1.00  0.00    +0.015 A 
ATOM     12  C   UNL     1      -1.400  -1.290   0.574  1.00  0.00    +0.015 A 
ATOM     13  C   UNL     1      -2.552   0.820   0.144  1.00  0.00    +0.001 A 
ATOM     14  C   UNL     1      -2.576  -0.535   0.533  1.00  0.00    +0.001 A 
ENDBRANCH   2   4
TORSDOF 1
