REMARK SMILES CCOC(=O)c1cc2ccccc2oc1=O
REMARK SMILES IDX 3 1 2 2 1 3 4 4 5 5 6 6 7 7 15 8 8 9 14 10 16 11 13 12 9 13
REMARK SMILES IDX 12 14 10 15 11 16
REMARK H PARENT
ROOT
ATOM      1  O   UNL     1      -2.542   0.924  -0.236  1.00  0.00    -0.462 OA
ENDROOT
BRANCH   1   2
ATOM      2  C   UNL     1      -3.930   0.982   0.123  1.00  0.00    +0.230 C 
ATOM      3  C   UNL     1      -4.565  -0.388  -0.026  1.00  0.00    +0.049 C 
ENDBRANCH   1   2
BRANCH   1   4
ATOM      4  C   UNL     1      -1.682   0.600   0.758  1.00  0.00    +0.345 C 
ATOM      5  O   UNL     1      -1.993   0.290   1.900  1.00  0.00    -0.246 OA
BRANCH   4   6
ATOM      6  C   UNL     1      -0.294   0.579   0.255  1.00  0.00    +0.146 A 
ATOM      7  C   UNL     1       0.503  -0.381   0.752  1.00  0.00    +0.035 A 
ATOM      8  C   UNL     1       0.196   1.560  -0.735  1.00  0.00    +0.351 A 
ATOM      9  C   UNL     1       1.876  -0.503   0.293  1.00  0.00    +0.018 A 
ATOM     10  O   UNL     1       1.499   1.378  -1.199  1.00  0.00    -0.422 OA
ATOM     11  O   UNL     1      -0.475   2.508  -1.125  1.00  0.00    -0.245 OA
ATOM     12  C   UNL     1       2.337   0.374  -0.683  1.00  0.00    +0.138 A 
ATOM     13  C   UNL     1       2.743  -1.480   0.787  1.00  0.00    +0.012 A 
ATOM     14  C   UNL     1       3.636   0.303  -1.178  1.00  0.00    +0.048 A 
ATOM     15  C   UNL     1       4.051  -1.564   0.300  1.00  0.00    +0.001 A 
ATOM     16  C   UNL     1       4.497  -0.674  -0.681  1.00  0.00    +0.004 A 
ENDBRANCH   4   6
ENDBRANCH   1   4
TORSDOF 3
