MODEL 1
REMARK VINA RESULT:    -8.223      0.000      0.000
REMARK INTER + INTRA:          -9.163
REMARK INTER:                  -9.185
REMARK INTRA:                   0.022
REMARK UNBOUND:                 0.022
REMARK SMILES CSc1nc(C)nc2c1cnn2-c1ccccc1
REMARK SMILES IDX 3 1 9 2 10 3 11 4 12 5 8 6 7 7 5 8 4 9 6 10 2 11 1 12 13 13
REMARK SMILES IDX 14 14 18 15 15 16 17 17 16 18
REMARK H PARENT
ROOT
ATOM      1  C   UNL     1     -26.669   6.254   8.055  1.00  0.00    +0.111 A 
ATOM      2  C   UNL     1     -26.327   7.450   7.433  1.00  0.00    +0.072 A 
ATOM      3  C   UNL     1     -25.178   8.074   6.927  1.00  0.00    +0.149 A 
ATOM      4  N   UNL     1     -25.424   9.276   6.409  1.00  0.00    -0.174 NA
ATOM      5  N   UNL     1     -26.772   9.457   6.573  1.00  0.00    -0.215 N 
ATOM      6  C   UNL     1     -27.352   8.352   7.200  1.00  0.00    +0.167 A 
ATOM      7  N   UNL     1     -28.645   8.155   7.531  1.00  0.00    -0.213 NA
ATOM      8  C   UNL     1     -28.871   6.976   8.136  1.00  0.00    +0.129 A 
ATOM      9  N   UNL     1     -27.953   6.025   8.401  1.00  0.00    -0.226 NA
ATOM     10  C   UNL     1     -30.289   6.668   8.511  1.00  0.00    +0.090 C 
ENDROOT
BRANCH   1  11
ATOM     11  S   UNL     1     -25.413   5.052   8.381  1.00  0.00    -0.109 SA
ATOM     12  C   UNL     1     -26.065   4.299   9.895  1.00  0.00    +0.092 C 
ENDBRANCH   1  11
BRANCH   5  13
ATOM     13  C   UNL     1     -27.381  10.668   6.117  1.00  0.00    +0.067 A 
ATOM     14  C   UNL     1     -26.620  11.570   5.351  1.00  0.00    +0.028 A 
ATOM     15  C   UNL     1     -28.713  10.986   6.408  1.00  0.00    +0.028 A 
ATOM     16  C   UNL     1     -27.182  12.762   4.889  1.00  0.00    +0.002 A 
ATOM     17  C   UNL     1     -29.271  12.183   5.942  1.00  0.00    +0.002 A 
ATOM     18  C   UNL     1     -28.507  13.068   5.185  1.00  0.00    +0.000 A 
ENDBRANCH   5  13
TORSDOF 2
ENDMDL
MODEL 2
REMARK VINA RESULT:    -8.029      7.387      9.969
REMARK INTER + INTRA:          -8.945
REMARK INTER:                  -8.595
REMARK INTRA:                  -0.351
REMARK UNBOUND:                 0.022
REMARK SMILES CSc1nc(C)nc2c1cnn2-c1ccccc1
REMARK SMILES IDX 3 1 9 2 10 3 11 4 12 5 8 6 7 7 5 8 4 9 6 10 2 11 1 12 13 13
REMARK SMILES IDX 14 14 18 15 15 16 17 17 16 18
REMARK H PARENT
ROOT
ATOM      1  C   UNL     1     -37.172   2.707  10.278  1.00  0.00    +0.111 A 
ATOM      2  C   UNL     1     -36.000   2.878   9.547  1.00  0.00    +0.072 A 
ATOM      3  C   UNL     1     -34.869   2.127   9.196  1.00  0.00    +0.149 A 
ATOM      4  N   UNL     1     -34.009   2.806   8.440  1.00  0.00    -0.174 NA
ATOM      5  N   UNL     1     -34.581   4.041   8.283  1.00  0.00    -0.215 N 
ATOM      6  C   UNL     1     -35.804   4.113   8.953  1.00  0.00    +0.167 A 
ATOM      7  N   UNL     1     -36.660   5.154   9.033  1.00  0.00    -0.213 NA
ATOM      8  C   UNL     1     -37.755   4.893   9.768  1.00  0.00    +0.129 A 
ATOM      9  N   UNL     1     -38.048   3.728  10.379  1.00  0.00    -0.226 NA
ATOM     10  C   UNL     1     -38.770   5.990   9.884  1.00  0.00    +0.090 C 
ENDROOT
BRANCH   1  11
ATOM     11  S   UNL     1     -37.491   1.155  11.061  1.00  0.00    -0.109 SA
ATOM     12  C   UNL     1     -39.259   1.327  11.422  1.00  0.00    +0.092 C 
ENDBRANCH   1  11
BRANCH   5  13
ATOM     13  C   UNL     1     -33.907   5.037   7.509  1.00  0.00    +0.067 A 
ATOM     14  C   UNL     1     -34.260   5.208   6.158  1.00  0.00    +0.028 A 
ATOM     15  C   UNL     1     -32.905   5.849   8.053  1.00  0.00    +0.028 A 
ATOM     16  C   UNL     1     -33.622   6.170   5.372  1.00  0.00    +0.002 A 
ATOM     17  C   UNL     1     -32.269   6.812   7.260  1.00  0.00    +0.002 A 
ATOM     18  C   UNL     1     -32.627   6.972   5.924  1.00  0.00    +0.000 A 
ENDBRANCH   5  13
TORSDOF 2
ENDMDL
MODEL 3
REMARK VINA RESULT:    -7.769      4.223      6.678
REMARK INTER + INTRA:          -8.655
REMARK INTER:                  -8.627
REMARK INTRA:                  -0.028
REMARK UNBOUND:                 0.022
REMARK SMILES CSc1nc(C)nc2c1cnn2-c1ccccc1
REMARK SMILES IDX 3 1 9 2 10 3 11 4 12 5 8 6 7 7 5 8 4 9 6 10 2 11 1 12 13 13
REMARK SMILES IDX 14 14 18 15 15 16 17 17 16 18
REMARK H PARENT
ROOT
ATOM      1  C   UNL     1     -26.271   0.987  11.071  1.00  0.00    +0.111 A 
ATOM      2  C   UNL     1     -26.906   2.065  10.464  1.00  0.00    +0.072 A 
ATOM      3  C   UNL     1     -28.210   2.556  10.307  1.00  0.00    +0.149 A 
ATOM      4  N   UNL     1     -28.260   3.685   9.604  1.00  0.00    -0.174 NA
ATOM      5  N   UNL     1     -26.955   3.954   9.284  1.00  0.00    -0.215 N 
ATOM      6  C   UNL     1     -26.102   2.976   9.799  1.00  0.00    +0.167 A 
ATOM      7  N   UNL     1     -24.759   2.891   9.698  1.00  0.00    -0.213 NA
ATOM      8  C   UNL     1     -24.242   1.811  10.307  1.00  0.00    +0.129 A 
ATOM      9  N   UNL     1     -24.929   0.871  10.988  1.00  0.00    -0.226 NA
ATOM     10  C   UNL     1     -22.752   1.658  10.264  1.00  0.00    +0.090 C 
ENDROOT
BRANCH   1  11
ATOM     11  S   UNL     1     -27.233  -0.214  11.942  1.00  0.00    -0.109 SA
ATOM     12  C   UNL     1     -27.592   0.697  13.467  1.00  0.00    +0.092 C 
ENDBRANCH   1  11
BRANCH   5  13
ATOM     13  C   UNL     1     -26.643   5.121   8.517  1.00  0.00    +0.067 A 
ATOM     14  C   UNL     1     -27.606   6.139   8.400  1.00  0.00    +0.028 A 
ATOM     15  C   UNL     1     -25.409   5.281   7.876  1.00  0.00    +0.028 A 
ATOM     16  C   UNL     1     -27.336   7.292   7.658  1.00  0.00    +0.002 A 
ATOM     17  C   UNL     1     -25.144   6.438   7.134  1.00  0.00    +0.002 A 
ATOM     18  C   UNL     1     -26.105   7.441   7.025  1.00  0.00    +0.000 A 
ENDBRANCH   5  13
TORSDOF 2
ENDMDL
MODEL 4
REMARK VINA RESULT:    -7.727      6.374      8.554
REMARK INTER + INTRA:          -8.608
REMARK INTER:                  -8.283
REMARK INTRA:                  -0.324
REMARK UNBOUND:                 0.022
REMARK SMILES CSc1nc(C)nc2c1cnn2-c1ccccc1
REMARK SMILES IDX 3 1 9 2 10 3 11 4 12 5 8 6 7 7 5 8 4 9 6 10 2 11 1 12 13 13
REMARK SMILES IDX 14 14 18 15 15 16 17 17 16 18
REMARK H PARENT
ROOT
ATOM      1  C   UNL     1     -35.778   3.371  10.045  1.00  0.00    +0.111 A 
ATOM      2  C   UNL     1     -35.596   4.514   9.272  1.00  0.00    +0.072 A 
ATOM      3  C   UNL     1     -36.352   5.611   8.835  1.00  0.00    +0.149 A 
ATOM      4  N   UNL     1     -35.653   6.458   8.082  1.00  0.00    -0.174 NA
ATOM      5  N   UNL     1     -34.398   5.911   8.017  1.00  0.00    -0.215 N 
ATOM      6  C   UNL     1     -34.335   4.717   8.738  1.00  0.00    +0.167 A 
ATOM      7  N   UNL     1     -33.280   3.893   8.910  1.00  0.00    -0.213 NA
ATOM      8  C   UNL     1     -33.560   2.814   9.662  1.00  0.00    +0.129 A 
ATOM      9  N   UNL     1     -34.745   2.525  10.236  1.00  0.00    -0.226 NA
ATOM     10  C   UNL     1     -32.433   1.862   9.924  1.00  0.00    +0.090 C 
ENDROOT
BRANCH   1  11
ATOM     11  S   UNL     1     -37.361   3.049  10.763  1.00  0.00    -0.109 SA
ATOM     12  C   UNL     1     -37.276   1.248  10.950  1.00  0.00    +0.092 C 
ENDBRANCH   1  11
BRANCH   5  13
ATOM     13  C   UNL     1     -33.376   6.580   7.272  1.00  0.00    +0.067 A 
ATOM     14  C   UNL     1     -33.494   6.664   5.873  1.00  0.00    +0.028 A 
ATOM     15  C   UNL     1     -32.260   7.154   7.891  1.00  0.00    +0.028 A 
ATOM     16  C   UNL     1     -32.516   7.309   5.113  1.00  0.00    +0.002 A 
ATOM     17  C   UNL     1     -31.282   7.800   7.125  1.00  0.00    +0.002 A 
ATOM     18  C   UNL     1     -31.409   7.877   5.740  1.00  0.00    +0.000 A 
ENDBRANCH   5  13
TORSDOF 2
ENDMDL
MODEL 5
REMARK VINA RESULT:    -7.724      2.256      3.659
REMARK INTER + INTRA:          -8.605
REMARK INTER:                  -8.597
REMARK INTRA:                  -0.008
REMARK UNBOUND:                 0.022
REMARK SMILES CSc1nc(C)nc2c1cnn2-c1ccccc1
REMARK SMILES IDX 3 1 9 2 10 3 11 4 12 5 8 6 7 7 5 8 4 9 6 10 2 11 1 12 13 13
REMARK SMILES IDX 14 14 18 15 15 16 17 17 16 18
REMARK H PARENT
ROOT
ATOM      1  C   UNL     1     -30.688   6.903   8.137  1.00  0.00    +0.111 A 
ATOM      2  C   UNL     1     -30.692   8.150   7.520  1.00  0.00    +0.072 A 
ATOM      3  C   UNL     1     -31.631   9.092   7.076  1.00  0.00    +0.149 A 
ATOM      4  N   UNL     1     -31.069  10.171   6.534  1.00  0.00    -0.174 NA
ATOM      5  N   UNL     1     -29.721   9.941   6.619  1.00  0.00    -0.215 N 
ATOM      6  C   UNL     1     -29.461   8.708   7.220  1.00  0.00    +0.167 A 
ATOM      7  N   UNL     1     -28.268   8.133   7.480  1.00  0.00    -0.213 NA
ATOM      8  C   UNL     1     -28.370   6.928   8.067  1.00  0.00    +0.129 A 
ATOM      9  N   UNL     1     -29.512   6.299   8.410  1.00  0.00    -0.226 NA
ATOM     10  C   UNL     1     -27.087   6.234   8.414  1.00  0.00    +0.090 C 
ENDROOT
BRANCH   1  11
ATOM     11  S   UNL     1     -32.222   6.131   8.553  1.00  0.00    -0.109 SA
ATOM     12  C   UNL     1     -31.628   4.546   9.201  1.00  0.00    +0.092 C 
ENDBRANCH   1  11
BRANCH   5  13
ATOM     13  C   UNL     1     -28.806  10.921   6.120  1.00  0.00    +0.067 A 
ATOM     14  C   UNL     1     -29.268  12.227   5.878  1.00  0.00    +0.028 A 
ATOM     15  C   UNL     1     -27.463  10.621   5.862  1.00  0.00    +0.028 A 
ATOM     16  C   UNL     1     -28.403  13.210   5.390  1.00  0.00    +0.002 A 
ATOM     17  C   UNL     1     -26.601  11.610   5.372  1.00  0.00    +0.002 A 
ATOM     18  C   UNL     1     -27.070  12.900   5.137  1.00  0.00    +0.000 A 
ENDBRANCH   5  13
TORSDOF 2
ENDMDL
MODEL 6
REMARK VINA RESULT:    -7.690      5.657      9.144
REMARK INTER + INTRA:          -8.567
REMARK INTER:                  -8.321
REMARK INTRA:                  -0.246
REMARK UNBOUND:                 0.022
REMARK SMILES CSc1nc(C)nc2c1cnn2-c1ccccc1
REMARK SMILES IDX 3 1 9 2 10 3 11 4 12 5 8 6 7 7 5 8 4 9 6 10 2 11 1 12 13 13
REMARK SMILES IDX 14 14 18 15 15 16 17 17 16 18
REMARK H PARENT
ROOT
ATOM      1  C   UNL     1     -24.573   2.452  10.351  1.00  0.00    +0.111 A 
ATOM      2  C   UNL     1     -25.591   1.550  10.645  1.00  0.00    +0.072 A 
ATOM      3  C   UNL     1     -25.744   0.332  11.324  1.00  0.00    +0.149 A 
ATOM      4  N   UNL     1     -26.996  -0.121  11.304  1.00  0.00    -0.174 NA
ATOM      5  N   UNL     1     -27.695   0.820  10.594  1.00  0.00    -0.215 N 
ATOM      6  C   UNL     1     -26.858   1.856  10.177  1.00  0.00    +0.167 A 
ATOM      7  N   UNL     1     -27.172   2.957   9.462  1.00  0.00    -0.213 NA
ATOM      8  C   UNL     1     -26.120   3.759   9.222  1.00  0.00    +0.129 A 
ATOM      9  N   UNL     1     -24.853   3.562   9.637  1.00  0.00    -0.226 NA
ATOM     10  C   UNL     1     -26.391   5.019   8.456  1.00  0.00    +0.090 C 
ENDROOT
BRANCH   1  11
ATOM     11  S   UNL     1     -22.931   2.128  10.921  1.00  0.00    -0.109 SA
ATOM     12  C   UNL     1     -22.325   1.063   9.586  1.00  0.00    +0.092 C 
ENDBRANCH   1  11
BRANCH   5  13
ATOM     13  C   UNL     1     -29.098   0.642  10.380  1.00  0.00    +0.067 A 
ATOM     14  C   UNL     1     -29.566  -0.597   9.906  1.00  0.00    +0.028 A 
ATOM     15  C   UNL     1     -30.024   1.662  10.629  1.00  0.00    +0.028 A 
ATOM     16  C   UNL     1     -30.929  -0.807   9.685  1.00  0.00    +0.002 A 
ATOM     17  C   UNL     1     -31.389   1.447  10.406  1.00  0.00    +0.002 A 
ATOM     18  C   UNL     1     -31.841   0.216   9.935  1.00  0.00    +0.000 A 
ENDBRANCH   5  13
TORSDOF 2
ENDMDL
MODEL 7
REMARK VINA RESULT:    -7.523      2.876      6.517
REMARK INTER + INTRA:          -8.381
REMARK INTER:                  -8.249
REMARK INTRA:                  -0.131
REMARK UNBOUND:                 0.022
REMARK SMILES CSc1nc(C)nc2c1cnn2-c1ccccc1
REMARK SMILES IDX 3 1 9 2 10 3 11 4 12 5 8 6 7 7 5 8 4 9 6 10 2 11 1 12 13 13
REMARK SMILES IDX 14 14 18 15 15 16 17 17 16 18
REMARK H PARENT
ROOT
ATOM      1  C   UNL     1     -28.650  10.339   6.470  1.00  0.00    +0.111 A 
ATOM      2  C   UNL     1     -29.916   9.828   6.742  1.00  0.00    +0.072 A 
ATOM      3  C   UNL     1     -31.250  10.255   6.683  1.00  0.00    +0.149 A 
ATOM      4  N   UNL     1     -32.113   9.321   7.074  1.00  0.00    -0.174 NA
ATOM      5  N   UNL     1     -31.334   8.242   7.402  1.00  0.00    -0.215 N 
ATOM      6  C   UNL     1     -29.981   8.526   7.208  1.00  0.00    +0.167 A 
ATOM      7  N   UNL     1     -28.914   7.725   7.417  1.00  0.00    -0.213 NA
ATOM      8  C   UNL     1     -27.739   8.313   7.135  1.00  0.00    +0.129 A 
ATOM      9  N   UNL     1     -27.563   9.566   6.670  1.00  0.00    -0.226 NA
ATOM     10  C   UNL     1     -26.506   7.480   7.315  1.00  0.00    +0.090 C 
ENDROOT
BRANCH   1  11
ATOM     11  S   UNL     1     -28.490  11.994   5.868  1.00  0.00    -0.109 SA
ATOM     12  C   UNL     1     -26.858  11.901   5.085  1.00  0.00    +0.092 C 
ENDBRANCH   1  11
BRANCH   5  13
ATOM     13  C   UNL     1     -31.954   7.041   7.869  1.00  0.00    +0.067 A 
ATOM     14  C   UNL     1     -33.182   6.643   7.310  1.00  0.00    +0.028 A 
ATOM     15  C   UNL     1     -31.378   6.247   8.868  1.00  0.00    +0.028 A 
ATOM     16  C   UNL     1     -33.816   5.476   7.743  1.00  0.00    +0.002 A 
ATOM     17  C   UNL     1     -32.019   5.079   9.298  1.00  0.00    +0.002 A 
ATOM     18  C   UNL     1     -33.234   4.694   8.737  1.00  0.00    +0.000 A 
ENDBRANCH   5  13
TORSDOF 2
ENDMDL
MODEL 8
REMARK VINA RESULT:    -7.476      8.533     10.094
REMARK INTER + INTRA:          -8.328
REMARK INTER:                  -7.980
REMARK INTRA:                  -0.347
REMARK UNBOUND:                 0.022
REMARK SMILES CSc1nc(C)nc2c1cnn2-c1ccccc1
REMARK SMILES IDX 3 1 9 2 10 3 11 4 12 5 8 6 7 7 5 8 4 9 6 10 2 11 1 12 13 13
REMARK SMILES IDX 14 14 18 15 15 16 17 17 16 18
REMARK H PARENT
ROOT
ATOM      1  C   UNL     1     -24.395   0.962  11.006  1.00  0.00    +0.111 A 
ATOM      2  C   UNL     1     -25.541   1.562  11.519  1.00  0.00    +0.072 A 
ATOM      3  C   UNL     1     -25.915   2.793  12.078  1.00  0.00    +0.149 A 
ATOM      4  N   UNL     1     -27.202   2.842  12.415  1.00  0.00    -0.174 NA
ATOM      5  N   UNL     1     -27.698   1.611  12.071  1.00  0.00    -0.215 N 
ATOM      6  C   UNL     1     -26.701   0.806  11.519  1.00  0.00    +0.167 A 
ATOM      7  N   UNL     1     -26.797  -0.460  11.063  1.00  0.00    -0.213 NA
ATOM      8  C   UNL     1     -25.637  -0.953  10.597  1.00  0.00    +0.129 A 
ATOM      9  N   UNL     1     -24.457  -0.303  10.542  1.00  0.00    -0.226 NA
ATOM     10  C   UNL     1     -25.666  -2.346  10.045  1.00  0.00    +0.090 C 
ENDROOT
BRANCH   1  11
ATOM     11  S   UNL     1     -22.878   1.870  10.969  1.00  0.00    -0.109 SA
ATOM     12  C   UNL     1     -22.079   1.115   9.528  1.00  0.00    +0.092 C 
ENDBRANCH   1  11
BRANCH   5  13
ATOM     13  C   UNL     1     -29.080   1.320  12.301  1.00  0.00    +0.067 A 
ATOM     14  C   UNL     1     -29.498   0.971  13.597  1.00  0.00    +0.028 A 
ATOM     15  C   UNL     1     -30.031   1.372  11.275  1.00  0.00    +0.028 A 
ATOM     16  C   UNL     1     -30.839   0.680  13.859  1.00  0.00    +0.002 A 
ATOM     17  C   UNL     1     -31.374   1.079  11.543  1.00  0.00    +0.002 A 
ATOM     18  C   UNL     1     -31.777   0.734  12.831  1.00  0.00    +0.000 A 
ENDBRANCH   5  13
TORSDOF 2
ENDMDL
MODEL 9
REMARK VINA RESULT:    -7.381      6.584      9.903
REMARK INTER + INTRA:          -8.221
REMARK INTER:                  -7.902
REMARK INTRA:                  -0.319
REMARK UNBOUND:                 0.022
REMARK SMILES CSc1nc(C)nc2c1cnn2-c1ccccc1
REMARK SMILES IDX 3 1 9 2 10 3 11 4 12 5 8 6 7 7 5 8 4 9 6 10 2 11 1 12 13 13
REMARK SMILES IDX 14 14 18 15 15 16 17 17 16 18
REMARK H PARENT
ROOT
ATOM      1  C   UNL     1     -31.989   2.297   9.955  1.00  0.00    +0.111 A 
ATOM      2  C   UNL     1     -33.364   2.309  10.169  1.00  0.00    +0.072 A 
ATOM      3  C   UNL     1     -34.364   1.420  10.587  1.00  0.00    +0.149 A 
ATOM      4  N   UNL     1     -35.574   1.974  10.618  1.00  0.00    -0.174 NA
ATOM      5  N   UNL     1     -35.374   3.268  10.211  1.00  0.00    -0.215 N 
ATOM      6  C   UNL     1     -34.027   3.500   9.928  1.00  0.00    +0.167 A 
ATOM      7  N   UNL     1     -33.440   4.639   9.504  1.00  0.00    -0.213 NA
ATOM      8  C   UNL     1     -32.114   4.523   9.318  1.00  0.00    +0.129 A 
ATOM      9  N   UNL     1     -31.371   3.419   9.530  1.00  0.00    -0.226 NA
ATOM     10  C   UNL     1     -31.382   5.753   8.874  1.00  0.00    +0.090 C 
ENDROOT
BRANCH   1  11
ATOM     11  S   UNL     1     -31.075   0.812  10.246  1.00  0.00    -0.109 SA
ATOM     12  C   UNL     1     -29.463   1.502  10.703  1.00  0.00    +0.092 C 
ENDBRANCH   1  11
BRANCH   5  13
ATOM     13  C   UNL     1     -36.489   4.160  10.130  1.00  0.00    +0.067 A 
ATOM     14  C   UNL     1     -36.584   5.220  11.050  1.00  0.00    +0.028 A 
ATOM     15  C   UNL     1     -37.490   4.013   9.163  1.00  0.00    +0.028 A 
ATOM     16  C   UNL     1     -37.659   6.111  11.001  1.00  0.00    +0.002 A 
ATOM     17  C   UNL     1     -38.565   4.909   9.118  1.00  0.00    +0.002 A 
ATOM     18  C   UNL     1     -38.650   5.955  10.034  1.00  0.00    +0.000 A 
ENDBRANCH   5  13
TORSDOF 2
ENDMDL
