REMARK SMILES O=CNc1ccccc1-c1ccccc1
REMARK SMILES IDX 4 1 9 2 8 3 7 4 6 5 5 6 3 7 1 8 2 9 10 11 11 12 15 13 12 14
REMARK SMILES IDX 14 15 13 16
REMARK H PARENT 3 10
ROOT
ATOM      1  C   UNL     1      -1.388   0.380  -0.378  1.00  0.00    +0.048 A 
ATOM      2  C   UNL     1      -0.380  -0.615  -0.337  1.00  0.00    +0.005 A 
ATOM      3  C   UNL     1      -0.660  -1.895  -0.854  1.00  0.00    +0.011 A 
ATOM      4  C   UNL     1      -1.907  -2.192  -1.401  1.00  0.00    +0.001 A 
ATOM      5  C   UNL     1      -2.892  -1.212  -1.439  1.00  0.00    +0.002 A 
ATOM      6  C   UNL     1      -2.635   0.064  -0.932  1.00  0.00    +0.027 A 
ENDROOT
BRANCH   1   7
ATOM      7  N   UNL     1      -1.097   1.664   0.144  1.00  0.00    -0.328 N 
ATOM      8  O   UNL     1      -3.075   2.888  -0.174  1.00  0.00    -0.279 OA
ATOM      9  C   UNL     1      -1.920   2.762   0.203  1.00  0.00    +0.341 C 
ATOM     10  H   UNL     1      -0.164   1.790   0.522  1.00  0.00    +0.169 HD
ENDBRANCH   1   7
BRANCH   2  11
ATOM     11  C   UNL     1       0.955  -0.365   0.227  1.00  0.00    -0.016 A 
ATOM     12  C   UNL     1       1.210  -0.589   1.588  1.00  0.00    +0.009 A 
ATOM     13  C   UNL     1       1.994   0.117  -0.583  1.00  0.00    +0.009 A 
ATOM     14  C   UNL     1       2.472  -0.333   2.127  1.00  0.00    +0.001 A 
ATOM     15  C   UNL     1       3.257   0.372  -0.044  1.00  0.00    +0.001 A 
ATOM     16  C   UNL     1       3.494   0.148   1.311  1.00  0.00    +0.000 A 
ENDBRANCH   2  11
TORSDOF 2
