REMARK SMILES Nc1ncnc2c1cnn2-c1ccccc1
REMARK SMILES IDX 2 1 7 2 8 3 9 4 10 5 6 6 5 7 4 8 3 9 1 10 11 13 12 14 16 15
REMARK SMILES IDX 13 16 15 17 14 18
REMARK H PARENT 1 11 1 12
ROOT
ATOM      1  C   UNL     1      -3.383  -0.040  -0.033  1.00  0.00    +0.137 A 
ATOM      2  C   UNL     1      -2.120   0.555   0.008  1.00  0.00    +0.082 A 
ATOM      3  C   UNL     1      -1.592   1.846   0.147  1.00  0.00    +0.150 A 
ATOM      4  N   UNL     1      -0.261   1.871   0.127  1.00  0.00    -0.174 NA
ATOM      5  N   UNL     1       0.108   0.561  -0.049  1.00  0.00    -0.215 N 
ATOM      6  C   UNL     1      -1.012  -0.269  -0.124  1.00  0.00    +0.168 A 
ATOM      7  N   UNL     1      -1.062  -1.608  -0.291  1.00  0.00    -0.216 NA
ATOM      8  C   UNL     1      -2.321  -2.071  -0.321  1.00  0.00    +0.226 A 
ATOM      9  N   UNL     1      -3.464  -1.373  -0.199  1.00  0.00    -0.219 NA
ENDROOT
BRANCH   1  10
ATOM     10  N   UNL     1      -4.574   0.656   0.097  1.00  0.00    -0.383 N 
ATOM     11  H   UNL     1      -5.342   0.020   0.283  1.00  0.00    +0.158 HD
ATOM     12  H   UNL     1      -4.541   1.489   0.668  1.00  0.00    +0.158 HD
ENDBRANCH   1  10
BRANCH   5  13
ATOM     13  C   UNL     1       1.496   0.226  -0.125  1.00  0.00    +0.067 A 
ATOM     14  C   UNL     1       2.454   1.249  -0.019  1.00  0.00    +0.028 A 
ATOM     15  C   UNL     1       1.933  -1.093  -0.302  1.00  0.00    +0.028 A 
ATOM     16  C   UNL     1       3.818   0.957  -0.089  1.00  0.00    +0.002 A 
ATOM     17  C   UNL     1       3.301  -1.380  -0.371  1.00  0.00    +0.002 A 
ATOM     18  C   UNL     1       4.241  -0.357  -0.265  1.00  0.00    +0.000 A 
ENDBRANCH   5  13
TORSDOF 2
