MODEL 1
REMARK VINA RESULT:   -10.412      0.000      0.000
REMARK INTER + INTRA:         -13.436
REMARK INTER:                 -13.151
REMARK INTRA:                  -0.284
REMARK UNBOUND:                -0.284
REMARK SMILES Nc1ccc(C(=O)Nc2ccc3c(O)cc(S(=O)(=O)O)cc3c2)cc1
REMARK SMILES IDX 9 1 23 2 22 3 21 4 16 5 15 6 13 7 12 8 11 9 10 10 8 11 6 12
REMARK SMILES IDX 7 13 5 15 2 16 3 17 25 18 4 19 24 20 1 21 17 24 18 25 19 26
REMARK SMILES IDX 20 27 14 29
REMARK H PARENT 8 14 1 22 1 23 20 28 14 30
ROOT
ATOM      1  C   UNL     1     -26.509   6.130   7.995  1.00  0.00    +0.042 A 
ATOM      2  C   UNL     1     -27.668   6.909   8.009  1.00  0.00    +0.035 A 
ATOM      3  C   UNL     1     -27.714   8.164   7.373  1.00  0.00    -0.011 A 
ATOM      4  C   UNL     1     -28.887   8.935   7.390  1.00  0.00    +0.032 A 
ATOM      5  C   UNL     1     -28.918  10.177   6.751  1.00  0.00    +0.098 A 
ATOM      6  C   UNL     1     -27.797  10.677   6.089  1.00  0.00    +0.069 A 
ATOM      7  C   UNL     1     -26.632   9.917   6.076  1.00  0.00    +0.124 A 
ATOM      8  C   UNL     1     -26.566   8.657   6.708  1.00  0.00    +0.024 A 
ATOM      9  C   UNL     1     -25.404   7.866   6.708  1.00  0.00    +0.015 A 
ATOM     10  C   UNL     1     -25.376   6.621   7.344  1.00  0.00    +0.027 A 
ENDROOT
BRANCH   1  11
ATOM     11  N   UNL     1     -26.398   4.868   8.616  1.00  0.00    -0.322 N 
ATOM     12  C   UNL     1     -25.405   4.439   9.479  1.00  0.00    +0.255 C 
ATOM     13  O   UNL     1     -24.475   5.104   9.920  1.00  0.00    -0.269 OA
ATOM     14  H   UNL     1     -27.175   4.238   8.465  1.00  0.00    +0.170 HD
BRANCH  12  15
ATOM     15  C   UNL     1     -25.540   3.026   9.931  1.00  0.00    +0.040 A 
ATOM     16  C   UNL     1     -25.706   0.360  10.811  1.00  0.00    +0.031 A 
ATOM     17  C   UNL     1     -24.803   1.248  11.402  1.00  0.00    +0.026 A 
ATOM     18  C   UNL     1     -26.570   0.838   9.820  1.00  0.00    +0.026 A 
ATOM     19  C   UNL     1     -24.698   2.566  10.948  1.00  0.00    +0.016 A 
ATOM     20  C   UNL     1     -26.474   2.156   9.361  1.00  0.00    +0.016 A 
BRANCH  16  21
ATOM     21  N   UNL     1     -25.891  -0.918  11.348  1.00  0.00    -0.399 N 
ATOM     22  H   UNL     1     -26.632  -0.969  12.041  1.00  0.00    +0.156 HD
ATOM     23  H   UNL     1     -25.036  -1.361  11.669  1.00  0.00    +0.156 HD
ENDBRANCH  16  21
ENDBRANCH  12  15
ENDBRANCH   1  11
BRANCH   5  24
ATOM     24  S   UNL     1     -30.402  11.138   6.745  1.00  0.00    +0.294 S 
ATOM     25  O   UNL     1     -30.246  12.180   5.755  1.00  0.00    -0.194 OA
ATOM     26  O   UNL     1     -30.779  11.421   8.113  1.00  0.00    -0.194 OA
BRANCH  24  27
ATOM     27  O   UNL     1     -31.528  10.111   6.213  1.00  0.00    -0.282 OA
ATOM     28  H   UNL     1     -31.962  10.530   5.439  1.00  0.00    +0.234 HD
ENDBRANCH  24  27
ENDBRANCH   5  24
BRANCH   7  29
ATOM     29  O   UNL     1     -25.520  10.398   5.434  1.00  0.00    -0.507 OA
ATOM     30  H   UNL     1     -25.760  11.190   4.923  1.00  0.00    +0.293 HD
ENDBRANCH   7  29
TORSDOF 6
ENDMDL
MODEL 2
REMARK VINA RESULT:   -10.318      5.371      7.522
REMARK INTER + INTRA:         -13.317
REMARK INTER:                 -12.839
REMARK INTRA:                  -0.479
REMARK UNBOUND:                -0.284
REMARK SMILES Nc1ccc(C(=O)Nc2ccc3c(O)cc(S(=O)(=O)O)cc3c2)cc1
REMARK SMILES IDX 9 1 23 2 22 3 21 4 16 5 15 6 13 7 12 8 11 9 10 10 8 11 6 12
REMARK SMILES IDX 7 13 5 15 2 16 3 17 25 18 4 19 24 20 1 21 17 24 18 25 19 26
REMARK SMILES IDX 20 27 14 29
REMARK H PARENT 8 14 1 22 1 23 20 28 14 30
ROOT
ATOM      1  C   UNL     1     -32.030   8.017   7.628  1.00  0.00    +0.042 A 
ATOM      2  C   UNL     1     -30.678   7.761   7.387  1.00  0.00    +0.035 A 
ATOM      3  C   UNL     1     -29.785   8.796   7.052  1.00  0.00    -0.011 A 
ATOM      4  C   UNL     1     -28.428   8.526   6.817  1.00  0.00    +0.032 A 
ATOM      5  C   UNL     1     -27.553   9.565   6.491  1.00  0.00    +0.098 A 
ATOM      6  C   UNL     1     -28.001  10.882   6.389  1.00  0.00    +0.069 A 
ATOM      7  C   UNL     1     -29.347  11.151   6.616  1.00  0.00    +0.124 A 
ATOM      8  C   UNL     1     -30.258  10.126   6.952  1.00  0.00    +0.024 A 
ATOM      9  C   UNL     1     -31.622  10.370   7.190  1.00  0.00    +0.015 A 
ATOM     10  C   UNL     1     -32.495   9.329   7.522  1.00  0.00    +0.027 A 
ENDROOT
BRANCH   1  11
ATOM     11  N   UNL     1     -32.975   7.024   7.963  1.00  0.00    -0.322 N 
ATOM     12  C   UNL     1     -33.870   6.396   7.116  1.00  0.00    +0.255 C 
ATOM     13  O   UNL     1     -33.959   6.535   5.902  1.00  0.00    -0.269 OA
ATOM     14  H   UNL     1     -32.935   6.688   8.916  1.00  0.00    +0.170 HD
BRANCH  12  15
ATOM     15  C   UNL     1     -34.779   5.421   7.782  1.00  0.00    +0.040 A 
ATOM     16  C   UNL     1     -36.499   3.638   9.113  1.00  0.00    +0.031 A 
ATOM     17  C   UNL     1     -36.556   5.008   9.376  1.00  0.00    +0.026 A 
ATOM     18  C   UNL     1     -35.618   3.177   8.130  1.00  0.00    +0.026 A 
ATOM     19  C   UNL     1     -35.683   5.894   8.737  1.00  0.00    +0.016 A 
ATOM     20  C   UNL     1     -34.742   4.055   7.483  1.00  0.00    +0.016 A 
BRANCH  16  21
ATOM     21  N   UNL     1     -37.453   2.775   9.663  1.00  0.00    -0.399 N 
ATOM     22  H   UNL     1     -37.577   1.912   9.140  1.00  0.00    +0.156 HD
ATOM     23  H   UNL     1     -38.338   3.220   9.881  1.00  0.00    +0.156 HD
ENDBRANCH  16  21
ENDBRANCH  12  15
ENDBRANCH   1  11
BRANCH   5  24
ATOM     24  S   UNL     1     -25.837   9.233   6.222  1.00  0.00    +0.294 S 
ATOM     25  O   UNL     1     -25.730   8.402   5.044  1.00  0.00    -0.194 OA
ATOM     26  O   UNL     1     -25.230   8.868   7.484  1.00  0.00    -0.194 OA
BRANCH  24  27
ATOM     27  O   UNL     1     -25.214  10.680   5.869  1.00  0.00    -0.282 OA
ATOM     28  H   UNL     1     -25.827  11.115   5.240  1.00  0.00    +0.234 HD
ENDBRANCH  24  27
ENDBRANCH   5  24
BRANCH   7  29
ATOM     29  O   UNL     1     -29.804  12.440   6.514  1.00  0.00    -0.507 OA
ATOM     30  H   UNL     1     -30.693  12.498   6.902  1.00  0.00    +0.293 HD
ENDBRANCH   7  29
TORSDOF 6
ENDMDL
MODEL 3
REMARK VINA RESULT:    -9.835      1.815      3.218
REMARK INTER + INTRA:         -12.707
REMARK INTER:                 -12.566
REMARK INTRA:                  -0.142
REMARK UNBOUND:                -0.284
REMARK SMILES Nc1ccc(C(=O)Nc2ccc3c(O)cc(S(=O)(=O)O)cc3c2)cc1
REMARK SMILES IDX 9 1 23 2 22 3 21 4 16 5 15 6 13 7 12 8 11 9 10 10 8 11 6 12
REMARK SMILES IDX 7 13 5 15 2 16 3 17 25 18 4 19 24 20 1 21 17 24 18 25 19 26
REMARK SMILES IDX 20 27 14 29
REMARK H PARENT 8 14 1 22 1 23 20 28 14 30
ROOT
ATOM      1  C   UNL     1     -28.304   7.363   8.078  1.00  0.00    +0.042 A 
ATOM      2  C   UNL     1     -27.623   8.437   7.500  1.00  0.00    +0.035 A 
ATOM      3  C   UNL     1     -28.316   9.525   6.936  1.00  0.00    -0.011 A 
ATOM      4  C   UNL     1     -27.620  10.600   6.362  1.00  0.00    +0.032 A 
ATOM      5  C   UNL     1     -28.322  11.674   5.810  1.00  0.00    +0.098 A 
ATOM      6  C   UNL     1     -29.716  11.704   5.813  1.00  0.00    +0.069 A 
ATOM      7  C   UNL     1     -30.408  10.637   6.376  1.00  0.00    +0.124 A 
ATOM      8  C   UNL     1     -29.732   9.538   6.946  1.00  0.00    +0.024 A 
ATOM      9  C   UNL     1     -30.405   8.447   7.525  1.00  0.00    +0.015 A 
ATOM     10  C   UNL     1     -29.700   7.375   8.082  1.00  0.00    +0.027 A 
ENDROOT
BRANCH   1  11
ATOM     11  N   UNL     1     -27.669   6.244   8.656  1.00  0.00    -0.322 N 
ATOM     12  C   UNL     1     -26.427   5.725   8.338  1.00  0.00    +0.255 C 
ATOM     13  O   UNL     1     -25.617   6.186   7.543  1.00  0.00    -0.269 OA
ATOM     14  H   UNL     1     -28.151   5.825   9.441  1.00  0.00    +0.170 HD
BRANCH  12  15
ATOM     15  C   UNL     1     -26.052   4.498   9.095  1.00  0.00    +0.040 A 
ATOM     16  C   UNL     1     -25.256   2.211  10.526  1.00  0.00    +0.031 A 
ATOM     17  C   UNL     1     -24.548   3.408  10.652  1.00  0.00    +0.026 A 
ATOM     18  C   UNL     1     -26.404   2.187   9.728  1.00  0.00    +0.026 A 
ATOM     19  C   UNL     1     -24.924   4.539   9.920  1.00  0.00    +0.016 A 
ATOM     20  C   UNL     1     -26.790   3.314   8.994  1.00  0.00    +0.016 A 
BRANCH  16  21
ATOM     21  N   UNL     1     -24.950   1.122  11.349  1.00  0.00    -0.399 N 
ATOM     22  H   UNL     1     -24.947   0.229  10.865  1.00  0.00    +0.156 HD
ATOM     23  H   UNL     1     -25.486   1.089  12.210  1.00  0.00    +0.156 HD
ENDBRANCH  16  21
ENDBRANCH  12  15
ENDBRANCH   1  11
BRANCH   5  24
ATOM     24  S   UNL     1     -27.448  13.044   5.112  1.00  0.00    +0.294 S 
ATOM     25  O   UNL     1     -26.795  12.581   3.909  1.00  0.00    -0.194 OA
ATOM     26  O   UNL     1     -26.731  13.726   6.168  1.00  0.00    -0.194 OA
BRANCH  24  27
ATOM     27  O   UNL     1     -28.618  14.069   4.680  1.00  0.00    -0.282 OA
ATOM     28  H   UNL     1     -28.677  14.047   3.701  1.00  0.00    +0.234 HD
ENDBRANCH  24  27
ENDBRANCH   5  24
BRANCH   7  29
ATOM     29  O   UNL     1     -31.779  10.650   6.382  1.00  0.00    -0.507 OA
ATOM     30  H   UNL     1     -32.111   9.822   5.994  1.00  0.00    +0.293 HD
ENDBRANCH   7  29
TORSDOF 6
ENDMDL
MODEL 4
REMARK VINA RESULT:    -9.811      4.020      8.825
REMARK INTER + INTRA:         -12.677
REMARK INTER:                 -12.582
REMARK INTRA:                  -0.095
REMARK UNBOUND:                -0.284
REMARK SMILES Nc1ccc(C(=O)Nc2ccc3c(O)cc(S(=O)(=O)O)cc3c2)cc1
REMARK SMILES IDX 9 1 23 2 22 3 21 4 16 5 15 6 13 7 12 8 11 9 10 10 8 11 6 12
REMARK SMILES IDX 7 13 5 15 2 16 3 17 25 18 4 19 24 20 1 21 17 24 18 25 19 26
REMARK SMILES IDX 20 27 14 29
REMARK H PARENT 8 14 1 22 1 23 20 28 14 30
ROOT
ATOM      1  C   UNL     1     -26.813   6.616   7.990  1.00  0.00    +0.042 A 
ATOM      2  C   UNL     1     -27.769   5.712   8.460  1.00  0.00    +0.035 A 
ATOM      3  C   UNL     1     -27.398   4.454   8.971  1.00  0.00    -0.011 A 
ATOM      4  C   UNL     1     -28.369   3.557   9.444  1.00  0.00    +0.032 A 
ATOM      5  C   UNL     1     -27.985   2.314   9.952  1.00  0.00    +0.098 A 
ATOM      6  C   UNL     1     -26.643   1.935   9.999  1.00  0.00    +0.069 A 
ATOM      7  C   UNL     1     -25.680   2.821   9.525  1.00  0.00    +0.124 A 
ATOM      8  C   UNL     1     -26.032   4.086   9.009  1.00  0.00    +0.024 A 
ATOM      9  C   UNL     1     -25.081   5.002   8.526  1.00  0.00    +0.015 A 
ATOM     10  C   UNL     1     -25.467   6.248   8.023  1.00  0.00    +0.027 A 
ENDROOT
BRANCH   1  11
ATOM     11  N   UNL     1     -27.120   7.888   7.464  1.00  0.00    -0.322 N 
ATOM     12  C   UNL     1     -28.373   8.458   7.316  1.00  0.00    +0.255 C 
ATOM     13  O   UNL     1     -29.443   7.988   7.683  1.00  0.00    -0.269 OA
ATOM     14  H   UNL     1     -26.325   8.472   7.241  1.00  0.00    +0.170 HD
BRANCH  12  15
ATOM     15  C   UNL     1     -28.374   9.804   6.678  1.00  0.00    +0.040 A 
ATOM     16  C   UNL     1     -28.284  12.345   5.475  1.00  0.00    +0.031 A 
ATOM     17  C   UNL     1     -27.233  11.441   5.306  1.00  0.00    +0.026 A 
ATOM     18  C   UNL     1     -29.410  11.939   6.199  1.00  0.00    +0.026 A 
ATOM     19  C   UNL     1     -27.261  10.188   5.925  1.00  0.00    +0.016 A 
ATOM     20  C   UNL     1     -29.450  10.686   6.821  1.00  0.00    +0.016 A 
BRANCH  16  21
ATOM     21  N   UNL     1     -28.305  13.545   4.757  1.00  0.00    -0.399 N 
ATOM     22  H   UNL     1     -27.437  14.070   4.809  1.00  0.00    +0.156 HD
ATOM     23  H   UNL     1     -29.116  14.126   4.945  1.00  0.00    +0.156 HD
ENDBRANCH  16  21
ENDBRANCH  12  15
ENDBRANCH   1  11
BRANCH   5  24
ATOM     24  S   UNL     1     -29.201   1.192  10.577  1.00  0.00    +0.294 S 
ATOM     25  O   UNL     1     -29.331   1.431  11.996  1.00  0.00    -0.194 OA
ATOM     26  O   UNL     1     -28.943  -0.124  10.034  1.00  0.00    -0.194 OA
BRANCH  24  27
ATOM     27  O   UNL     1     -30.569   1.670   9.865  1.00  0.00    -0.282 OA
ATOM     28  H   UNL     1     -30.865   2.486  10.322  1.00  0.00    +0.234 HD
ENDBRANCH  24  27
ENDBRANCH   5  24
BRANCH   7  29
ATOM     29  O   UNL     1     -24.358   2.461   9.559  1.00  0.00    -0.507 OA
ATOM     30  H   UNL     1     -23.809   3.258   9.654  1.00  0.00    +0.293 HD
ENDBRANCH   7  29
TORSDOF 6
ENDMDL
MODEL 5
REMARK VINA RESULT:    -9.486      6.154      9.514
REMARK INTER + INTRA:         -12.266
REMARK INTER:                 -11.893
REMARK INTRA:                  -0.373
REMARK UNBOUND:                -0.284
REMARK SMILES Nc1ccc(C(=O)Nc2ccc3c(O)cc(S(=O)(=O)O)cc3c2)cc1
REMARK SMILES IDX 9 1 23 2 22 3 21 4 16 5 15 6 13 7 12 8 11 9 10 10 8 11 6 12
REMARK SMILES IDX 7 13 5 15 2 16 3 17 25 18 4 19 24 20 1 21 17 24 18 25 19 26
REMARK SMILES IDX 20 27 14 29
REMARK H PARENT 8 14 1 22 1 23 20 28 14 30
ROOT
ATOM      1  C   UNL     1     -31.867   7.571   6.437  1.00  0.00    +0.042 A 
ATOM      2  C   UNL     1     -32.098   7.027   7.703  1.00  0.00    +0.035 A 
ATOM      3  C   UNL     1     -32.930   5.905   7.876  1.00  0.00    -0.011 A 
ATOM      4  C   UNL     1     -33.150   5.365   9.153  1.00  0.00    +0.032 A 
ATOM      5  C   UNL     1     -33.974   4.248   9.308  1.00  0.00    +0.098 A 
ATOM      6  C   UNL     1     -34.595   3.650   8.211  1.00  0.00    +0.069 A 
ATOM      7  C   UNL     1     -34.383   4.187   6.946  1.00  0.00    +0.124 A 
ATOM      8  C   UNL     1     -33.553   5.312   6.752  1.00  0.00    +0.024 A 
ATOM      9  C   UNL     1     -33.317   5.874   5.485  1.00  0.00    +0.015 A 
ATOM     10  C   UNL     1     -32.487   6.988   5.331  1.00  0.00    +0.027 A 
ENDROOT
BRANCH   1  11
ATOM     11  N   UNL     1     -31.048   8.695   6.198  1.00  0.00    -0.322 N 
ATOM     12  C   UNL     1     -29.760   8.910   6.656  1.00  0.00    +0.255 C 
ATOM     13  O   UNL     1     -29.066   8.130   7.296  1.00  0.00    -0.269 OA
ATOM     14  H   UNL     1     -31.425   9.382   5.558  1.00  0.00    +0.170 HD
BRANCH  12  15
ATOM     15  C   UNL     1     -29.174  10.225   6.273  1.00  0.00    +0.040 A 
ATOM     16  C   UNL     1     -28.151  12.736   5.524  1.00  0.00    +0.031 A 
ATOM     17  C   UNL     1     -29.481  12.604   5.931  1.00  0.00    +0.026 A 
ATOM     18  C   UNL     1     -27.321  11.610   5.558  1.00  0.00    +0.026 A 
ATOM     19  C   UNL     1     -30.000  11.353   6.277  1.00  0.00    +0.016 A 
ATOM     20  C   UNL     1     -27.831  10.354   5.906  1.00  0.00    +0.016 A 
BRANCH  16  21
ATOM     21  N   UNL     1     -27.607  14.004   5.296  1.00  0.00    -0.399 N 
ATOM     22  H   UNL     1     -28.135  14.565   4.635  1.00  0.00    +0.156 HD
ATOM     23  H   UNL     1     -26.614  13.997   5.085  1.00  0.00    +0.156 HD
ENDBRANCH  16  21
ENDBRANCH  12  15
ENDBRANCH   1  11
BRANCH   5  24
ATOM     24  S   UNL     1     -34.231   3.546  10.911  1.00  0.00    +0.294 S 
ATOM     25  O   UNL     1     -33.166   2.599  11.151  1.00  0.00    -0.194 OA
ATOM     26  O   UNL     1     -35.627   3.191  11.045  1.00  0.00    -0.194 OA
BRANCH  24  27
ATOM     27  O   UNL     1     -34.025   4.792  11.916  1.00  0.00    -0.282 OA
ATOM     28  H   UNL     1     -34.482   5.564  11.520  1.00  0.00    +0.234 HD
ENDBRANCH  24  27
ENDBRANCH   5  24
BRANCH   7  29
ATOM     29  O   UNL     1     -34.990   3.613   5.859  1.00  0.00    -0.507 OA
ATOM     30  H   UNL     1     -34.587   3.959   5.045  1.00  0.00    +0.293 HD
ENDBRANCH   7  29
TORSDOF 6
ENDMDL
MODEL 6
REMARK VINA RESULT:    -9.469      6.257     10.013
REMARK INTER + INTRA:         -12.244
REMARK INTER:                 -11.956
REMARK INTRA:                  -0.288
REMARK UNBOUND:                -0.284
REMARK SMILES Nc1ccc(C(=O)Nc2ccc3c(O)cc(S(=O)(=O)O)cc3c2)cc1
REMARK SMILES IDX 9 1 23 2 22 3 21 4 16 5 15 6 13 7 12 8 11 9 10 10 8 11 6 12
REMARK SMILES IDX 7 13 5 15 2 16 3 17 25 18 4 19 24 20 1 21 17 24 18 25 19 26
REMARK SMILES IDX 20 27 14 29
REMARK H PARENT 8 14 1 22 1 23 20 28 14 30
ROOT
ATOM      1  C   UNL     1     -32.294   7.045   7.607  1.00  0.00    +0.042 A 
ATOM      2  C   UNL     1     -31.936   5.861   8.256  1.00  0.00    +0.035 A 
ATOM      3  C   UNL     1     -32.903   4.901   8.610  1.00  0.00    -0.011 A 
ATOM      4  C   UNL     1     -32.530   3.713   9.259  1.00  0.00    +0.032 A 
ATOM      5  C   UNL     1     -33.500   2.767   9.600  1.00  0.00    +0.098 A 
ATOM      6  C   UNL     1     -34.848   2.978   9.310  1.00  0.00    +0.069 A 
ATOM      7  C   UNL     1     -35.220   4.158   8.672  1.00  0.00    +0.124 A 
ATOM      8  C   UNL     1     -34.266   5.132   8.310  1.00  0.00    +0.024 A 
ATOM      9  C   UNL     1     -34.613   6.331   7.662  1.00  0.00    +0.015 A 
ATOM     10  C   UNL     1     -33.640   7.274   7.317  1.00  0.00    +0.027 A 
ENDROOT
BRANCH   1  11
ATOM     11  N   UNL     1     -31.375   8.047   7.229  1.00  0.00    -0.322 N 
ATOM     12  C   UNL     1     -31.445   9.401   7.508  1.00  0.00    +0.255 C 
ATOM     13  O   UNL     1     -32.283   9.969   8.197  1.00  0.00    -0.269 OA
ATOM     14  H   UNL     1     -30.537   7.719   6.767  1.00  0.00    +0.170 HD
BRANCH  12  15
ATOM     15  C   UNL     1     -30.341  10.214   6.925  1.00  0.00    +0.040 A 
ATOM     16  C   UNL     1     -28.319  11.796   5.775  1.00  0.00    +0.031 A 
ATOM     17  C   UNL     1     -29.625  12.280   5.882  1.00  0.00    +0.026 A 
ATOM     18  C   UNL     1     -28.022  10.538   6.309  1.00  0.00    +0.026 A 
ATOM     19  C   UNL     1     -30.638  11.487   6.428  1.00  0.00    +0.016 A 
ATOM     20  C   UNL     1     -29.028   9.736   6.860  1.00  0.00    +0.016 A 
BRANCH  16  21
ATOM     21  N   UNL     1     -27.289  12.636   5.341  1.00  0.00    -0.399 N 
ATOM     22  H   UNL     1     -26.358  12.289   5.554  1.00  0.00    +0.156 HD
ATOM     23  H   UNL     1     -27.406  13.608   5.610  1.00  0.00    +0.156 HD
ENDBRANCH  16  21
ENDBRANCH  12  15
ENDBRANCH   1  11
BRANCH   5  24
ATOM     24  S   UNL     1     -33.032   1.257  10.391  1.00  0.00    +0.294 S 
ATOM     25  O   UNL     1     -32.063   0.599   9.543  1.00  0.00    -0.194 OA
ATOM     26  O   UNL     1     -34.225   0.589  10.864  1.00  0.00    -0.194 OA
BRANCH  24  27
ATOM     27  O   UNL     1     -32.273   1.740  11.731  1.00  0.00    -0.282 OA
ATOM     28  H   UNL     1     -32.948   2.139  12.320  1.00  0.00    +0.234 HD
ENDBRANCH  24  27
ENDBRANCH   5  24
BRANCH   7  29
ATOM     29  O   UNL     1     -36.542   4.381   8.386  1.00  0.00    -0.507 OA
ATOM     30  H   UNL     1     -36.622   4.720   7.478  1.00  0.00    +0.293 HD
ENDBRANCH   7  29
TORSDOF 6
ENDMDL
MODEL 7
REMARK VINA RESULT:    -9.394      4.136      9.282
REMARK INTER + INTRA:         -12.150
REMARK INTER:                 -12.050
REMARK INTRA:                  -0.099
REMARK UNBOUND:                -0.284
REMARK SMILES Nc1ccc(C(=O)Nc2ccc3c(O)cc(S(=O)(=O)O)cc3c2)cc1
REMARK SMILES IDX 9 1 23 2 22 3 21 4 16 5 15 6 13 7 12 8 11 9 10 10 8 11 6 12
REMARK SMILES IDX 7 13 5 15 2 16 3 17 25 18 4 19 24 20 1 21 17 24 18 25 19 26
REMARK SMILES IDX 20 27 14 29
REMARK H PARENT 8 14 1 22 1 23 20 28 14 30
ROOT
ATOM      1  C   UNL     1     -27.289   6.186   8.125  1.00  0.00    +0.042 A 
ATOM      2  C   UNL     1     -26.090   5.567   8.487  1.00  0.00    +0.035 A 
ATOM      3  C   UNL     1     -26.077   4.306   9.111  1.00  0.00    -0.011 A 
ATOM      4  C   UNL     1     -24.865   3.692   9.466  1.00  0.00    +0.032 A 
ATOM      5  C   UNL     1     -24.869   2.438  10.080  1.00  0.00    +0.098 A 
ATOM      6  C   UNL     1     -26.063   1.773  10.358  1.00  0.00    +0.069 A 
ATOM      7  C   UNL     1     -27.265   2.382  10.012  1.00  0.00    +0.124 A 
ATOM      8  C   UNL     1     -27.298   3.646   9.387  1.00  0.00    +0.024 A 
ATOM      9  C   UNL     1     -28.498   4.283   9.023  1.00  0.00    +0.015 A 
ATOM     10  C   UNL     1     -28.492   5.536   8.403  1.00  0.00    +0.027 A 
ENDROOT
BRANCH   1  11
ATOM     11  N   UNL     1     -27.369   7.449   7.501  1.00  0.00    -0.322 N 
ATOM     12  C   UNL     1     -26.325   8.304   7.196  1.00  0.00    +0.255 C 
ATOM     13  O   UNL     1     -25.128   8.089   7.347  1.00  0.00    -0.269 OA
ATOM     14  H   UNL     1     -28.289   7.719   7.177  1.00  0.00    +0.170 HD
BRANCH  12  15
ATOM     15  C   UNL     1     -26.737   9.596   6.579  1.00  0.00    +0.040 A 
ATOM     16  C   UNL     1     -27.601  12.002   5.405  1.00  0.00    +0.031 A 
ATOM     17  C   UNL     1     -28.500  11.186   6.097  1.00  0.00    +0.026 A 
ATOM     18  C   UNL     1     -26.253  11.633   5.363  1.00  0.00    +0.026 A 
ATOM     19  C   UNL     1     -28.080   9.976   6.658  1.00  0.00    +0.016 A 
ATOM     20  C   UNL     1     -25.822  10.425   5.923  1.00  0.00    +0.016 A 
BRANCH  16  21
ATOM     21  N   UNL     1     -27.999  13.264   4.953  1.00  0.00    -0.399 N 
ATOM     22  H   UNL     1     -28.190  13.302   3.956  1.00  0.00    +0.156 HD
ATOM     23  H   UNL     1     -27.397  14.022   5.257  1.00  0.00    +0.156 HD
ENDBRANCH  16  21
ENDBRANCH  12  15
ENDBRANCH   1  11
BRANCH   5  24
ATOM     24  S   UNL     1     -23.343   1.649  10.502  1.00  0.00    +0.294 S 
ATOM     25  O   UNL     1     -22.605   1.440   9.277  1.00  0.00    -0.194 OA
ATOM     26  O   UNL     1     -23.616   0.576  11.433  1.00  0.00    -0.194 OA
BRANCH  24  27
ATOM     27  O   UNL     1     -22.560   2.760  11.373  1.00  0.00    -0.282 OA
ATOM     28  H   UNL     1     -22.786   3.637  10.996  1.00  0.00    +0.234 HD
ENDBRANCH  24  27
ENDBRANCH   5  24
BRANCH   7  29
ATOM     29  O   UNL     1     -28.447   1.742  10.283  1.00  0.00    -0.507 OA
ATOM     30  H   UNL     1     -28.452   1.455  11.212  1.00  0.00    +0.293 HD
ENDBRANCH   7  29
TORSDOF 6
ENDMDL
MODEL 8
REMARK VINA RESULT:    -9.326      6.603      7.900
REMARK INTER + INTRA:         -12.064
REMARK INTER:                 -11.596
REMARK INTRA:                  -0.469
REMARK UNBOUND:                -0.284
REMARK SMILES Nc1ccc(C(=O)Nc2ccc3c(O)cc(S(=O)(=O)O)cc3c2)cc1
REMARK SMILES IDX 9 1 23 2 22 3 21 4 16 5 15 6 13 7 12 8 11 9 10 10 8 11 6 12
REMARK SMILES IDX 7 13 5 15 2 16 3 17 25 18 4 19 24 20 1 21 17 24 18 25 19 26
REMARK SMILES IDX 20 27 14 29
REMARK H PARENT 8 14 1 22 1 23 20 28 14 30
ROOT
ATOM      1  C   UNL     1     -32.916   1.909  11.072  1.00  0.00    +0.042 A 
ATOM      2  C   UNL     1     -32.553   3.122  10.483  1.00  0.00    +0.035 A 
ATOM      3  C   UNL     1     -33.276   3.655   9.399  1.00  0.00    -0.011 A 
ATOM      4  C   UNL     1     -32.903   4.877   8.819  1.00  0.00    +0.032 A 
ATOM      5  C   UNL     1     -33.633   5.395   7.746  1.00  0.00    +0.098 A 
ATOM      6  C   UNL     1     -34.736   4.716   7.228  1.00  0.00    +0.069 A 
ATOM      7  C   UNL     1     -35.103   3.501   7.798  1.00  0.00    +0.124 A 
ATOM      8  C   UNL     1     -34.391   2.951   8.885  1.00  0.00    +0.024 A 
ATOM      9  C   UNL     1     -34.742   1.728   9.483  1.00  0.00    +0.015 A 
ATOM     10  C   UNL     1     -34.013   1.214  10.560  1.00  0.00    +0.027 A 
ENDROOT
BRANCH   1  11
ATOM     11  N   UNL     1     -32.232   1.321  12.157  1.00  0.00    -0.322 N 
ATOM     12  C   UNL     1     -31.095   0.534  12.108  1.00  0.00    +0.255 C 
ATOM     13  O   UNL     1     -30.430   0.261  11.116  1.00  0.00    -0.269 OA
ATOM     14  H   UNL     1     -32.575   1.570  13.076  1.00  0.00    +0.170 HD
BRANCH  12  15
ATOM     15  C   UNL     1     -30.637   0.018  13.428  1.00  0.00    +0.040 A 
ATOM     16  C   UNL     1     -29.715  -0.886  15.927  1.00  0.00    +0.031 A 
ATOM     17  C   UNL     1     -29.688   0.474  15.610  1.00  0.00    +0.026 A 
ATOM     18  C   UNL     1     -30.268  -1.781  15.006  1.00  0.00    +0.026 A 
ATOM     19  C   UNL     1     -30.120   0.924  14.358  1.00  0.00    +0.016 A 
ATOM     20  C   UNL     1     -30.705  -1.341  13.752  1.00  0.00    +0.016 A 
BRANCH  16  21
ATOM     21  N   UNL     1     -29.397  -1.314  17.220  1.00  0.00    -0.399 N 
ATOM     22  H   UNL     1     -28.758  -2.103  17.246  1.00  0.00    +0.156 HD
ATOM     23  H   UNL     1     -30.204  -1.455  17.820  1.00  0.00    +0.156 HD
ENDBRANCH  16  21
ENDBRANCH  12  15
ENDBRANCH   1  11
BRANCH   5  24
ATOM     24  S   UNL     1     -33.185   6.949   7.031  1.00  0.00    +0.294 S 
ATOM     25  O   UNL     1     -33.443   6.870   5.612  1.00  0.00    -0.194 OA
ATOM     26  O   UNL     1     -31.901   7.353   7.563  1.00  0.00    -0.194 OA
BRANCH  24  27
ATOM     27  O   UNL     1     -34.240   7.989   7.672  1.00  0.00    -0.282 OA
ATOM     28  H   UNL     1     -34.989   7.462   8.026  1.00  0.00    +0.234 HD
ENDBRANCH  24  27
ENDBRANCH   5  24
BRANCH   7  29
ATOM     29  O   UNL     1     -36.182   2.820   7.296  1.00  0.00    -0.507 OA
ATOM     30  H   UNL     1     -36.064   1.868   7.454  1.00  0.00    +0.293 HD
ENDBRANCH   7  29
TORSDOF 6
ENDMDL
MODEL 9
REMARK VINA RESULT:    -9.147      6.600      8.230
REMARK INTER + INTRA:         -11.838
REMARK INTER:                 -11.397
REMARK INTRA:                  -0.441
REMARK UNBOUND:                -0.284
REMARK SMILES Nc1ccc(C(=O)Nc2ccc3c(O)cc(S(=O)(=O)O)cc3c2)cc1
REMARK SMILES IDX 9 1 23 2 22 3 21 4 16 5 15 6 13 7 12 8 11 9 10 10 8 11 6 12
REMARK SMILES IDX 7 13 5 15 2 16 3 17 25 18 4 19 24 20 1 21 17 24 18 25 19 26
REMARK SMILES IDX 20 27 14 29
REMARK H PARENT 8 14 1 22 1 23 20 28 14 30
ROOT
ATOM      1  C   UNL     1     -31.792   1.702  10.038  1.00  0.00    +0.042 A 
ATOM      2  C   UNL     1     -32.449   2.929   9.916  1.00  0.00    +0.035 A 
ATOM      3  C   UNL     1     -33.846   3.028  10.062  1.00  0.00    -0.011 A 
ATOM      4  C   UNL     1     -34.494   4.267   9.941  1.00  0.00    +0.032 A 
ATOM      5  C   UNL     1     -35.879   4.351  10.093  1.00  0.00    +0.098 A 
ATOM      6  C   UNL     1     -36.646   3.217  10.363  1.00  0.00    +0.069 A 
ATOM      7  C   UNL     1     -36.006   1.987  10.477  1.00  0.00    +0.124 A 
ATOM      8  C   UNL     1     -34.608   1.867  10.334  1.00  0.00    +0.024 A 
ATOM      9  C   UNL     1     -33.934   0.638  10.448  1.00  0.00    +0.015 A 
ATOM     10  C   UNL     1     -32.546   0.558  10.300  1.00  0.00    +0.027 A 
ENDROOT
BRANCH   1  11
ATOM     11  N   UNL     1     -30.397   1.536   9.900  1.00  0.00    -0.322 N 
ATOM     12  C   UNL     1     -29.464   1.384  10.910  1.00  0.00    +0.255 C 
ATOM     13  O   UNL     1     -29.686   1.294  12.111  1.00  0.00    -0.269 OA
ATOM     14  H   UNL     1     -30.061   1.445   8.950  1.00  0.00    +0.170 HD
BRANCH  12  15
ATOM     15  C   UNL     1     -28.053   1.280  10.444  1.00  0.00    +0.040 A 
ATOM     16  C   UNL     1     -25.391   1.172   9.540  1.00  0.00    +0.031 A 
ATOM     17  C   UNL     1     -25.934   2.371  10.008  1.00  0.00    +0.026 A 
ATOM     18  C   UNL     1     -26.174   0.014   9.590  1.00  0.00    +0.026 A 
ATOM     19  C   UNL     1     -27.265   2.435  10.432  1.00  0.00    +0.016 A 
ATOM     20  C   UNL     1     -27.506   0.066  10.015  1.00  0.00    +0.016 A 
BRANCH  16  21
ATOM     21  N   UNL     1     -24.030   1.087   9.233  1.00  0.00    -0.399 N 
ATOM     22  H   UNL     1     -23.798   1.413   8.299  1.00  0.00    +0.156 HD
ATOM     23  H   UNL     1     -23.614   0.184   9.438  1.00  0.00    +0.156 HD
ENDBRANCH  16  21
ENDBRANCH  12  15
ENDBRANCH   1  11
BRANCH   5  24
ATOM     24  S   UNL     1     -36.697   5.914   9.971  1.00  0.00    +0.294 S 
ATOM     25  O   UNL     1     -36.670   6.527  11.280  1.00  0.00    -0.194 OA
ATOM     26  O   UNL     1     -37.923   5.742   9.223  1.00  0.00    -0.194 OA
BRANCH  24  27
ATOM     27  O   UNL     1     -35.739   6.777   8.999  1.00  0.00    -0.282 OA
ATOM     28  H   UNL     1     -36.319   7.344   8.448  1.00  0.00    +0.234 HD
ENDBRANCH  24  27
ENDBRANCH   5  24
BRANCH   7  29
ATOM     29  O   UNL     1     -36.748   0.863  10.737  1.00  0.00    -0.507 OA
ATOM     30  H   UNL     1     -37.525   0.848  10.153  1.00  0.00    +0.293 HD
ENDBRANCH   7  29
TORSDOF 6
ENDMDL
