REMARK SMILES Cn1ncc2c(Nc3ccccc3Cl)ncnc21
REMARK SMILES IDX 7 1 6 3 2 4 3 5 18 6 4 7 17 8 5 9 16 10 15 11 1 12 8 13
REMARK SMILES IDX 13 14 9 15 12 16 10 17 11 18 14 19
REMARK H PARENT 7 2
ROOT
ATOM      1  N   UNL     1       1.125  -0.351   1.595  1.00  0.00    -0.338 N 
ATOM      2  H   UNL     1       1.366   0.120   2.470  1.00  0.00    +0.168 HD
ENDROOT
BRANCH   1   3
ATOM      3  C   UNL     1      -0.265  -0.123   1.492  1.00  0.00    +0.144 A 
ATOM      4  N   UNL     1      -2.925  -0.064  -0.803  1.00  0.00    -0.250 N 
ATOM      5  N   UNL     1      -2.014  -0.397  -1.744  1.00  0.00    -0.179 NA
ATOM      6  C   UNL     1      -2.395   0.068   0.451  1.00  0.00    +0.163 A 
ATOM      7  C   UNL     1      -0.873  -0.472  -1.048  1.00  0.00    +0.149 A 
ATOM      8  N   UNL     1      -3.052   0.387   1.580  1.00  0.00    -0.217 NA
ATOM      9  C   UNL     1      -1.040  -0.195   0.326  1.00  0.00    +0.082 A 
ATOM     10  C   UNL     1      -2.222   0.427   2.633  1.00  0.00    +0.226 A 
ATOM     11  N   UNL     1      -0.895   0.195   2.652  1.00  0.00    -0.218 NA
ATOM     12  C   UNL     1      -4.304   0.114  -1.185  1.00  0.00    +0.176 C 
ENDBRANCH   1   3
BRANCH   1  13
ATOM     13  C   UNL     1       2.064  -0.025   0.588  1.00  0.00    +0.058 A 
ATOM     14  C   UNL     1       2.519   1.288   0.367  1.00  0.00    +0.064 A 
ATOM     15  C   UNL     1       2.522  -1.045  -0.257  1.00  0.00    +0.027 A 
ATOM     16  C   UNL     1       3.413   1.566  -0.670  1.00  0.00    +0.023 A 
ATOM     17  C   UNL     1       3.415  -0.767  -1.294  1.00  0.00    +0.002 A 
ATOM     18  C   UNL     1       3.859   0.538  -1.501  1.00  0.00    +0.002 A 
ATOM     19 Cl   UNL     1       2.007   2.593   1.378  1.00  0.00    -0.082 Cl
ENDBRANCH   1  13
TORSDOF 2
