MODEL 1
REMARK VINA RESULT:   -10.275      0.000      0.000
REMARK INTER + INTRA:         -15.552
REMARK INTER:                 -13.878
REMARK INTRA:                  -1.673
REMARK UNBOUND:                -1.673
REMARK SMILES O=C(O)c1ccccc1N[C@H](c1ccccc1)c1ccc2cccnc2c1O
REMARK SMILES IDX 10 1 9 3 4 4 5 5 8 6 6 7 7 8 2 9 1 10 3 11 11 13 12 14 13 15
REMARK SMILES IDX 17 16 14 17 16 18 15 19 18 20 27 21 19 22 26 23 20 24 25 25
REMARK SMILES IDX 21 26 24 27 22 28 23 29 28 30
REMARK H PARENT 10 2 3 12 28 31
ROOT
ATOM      1  N   UNL     1     -34.810   4.011  10.782  1.00  0.00    -0.373 N 
ATOM      2  H   UNL     1     -34.673   5.021  10.893  1.00  0.00    +0.161 HD
ENDROOT
BRANCH   1   3
ATOM      3  C   UNL     1     -36.186   3.741  10.727  1.00  0.00    +0.049 A 
ATOM      4  C   UNL     1     -37.141   4.789  10.697  1.00  0.00    +0.083 A 
ATOM      5  C   UNL     1     -38.521   4.506  10.741  1.00  0.00    +0.018 A 
ATOM      6  C   UNL     1     -36.684   2.433  10.841  1.00  0.00    +0.026 A 
ATOM      7  C   UNL     1     -38.976   3.194  10.822  1.00  0.00    +0.001 A 
ATOM      8  C   UNL     1     -38.056   2.158  10.874  1.00  0.00    +0.002 A 
BRANCH   4   9
ATOM      9  C   UNL     1     -36.796   6.236  10.607  1.00  0.00    +0.337 C 
ATOM     10  O   UNL     1     -37.030   7.077  11.458  1.00  0.00    -0.246 OA
BRANCH   9  11
ATOM     11  O   UNL     1     -36.216   6.597   9.443  1.00  0.00    -0.478 OA
ATOM     12  H   UNL     1     -36.965   6.988   8.943  1.00  0.00    +0.297 HD
ENDBRANCH   9  11
ENDBRANCH   4   9
ENDBRANCH   1   3
BRANCH   1  13
ATOM     13  C   UNL     1     -33.795   3.488   9.838  1.00  0.00    +0.144 C 
BRANCH  13  14
ATOM     14  C   UNL     1     -32.800   2.532  10.502  1.00  0.00    -0.021 A 
ATOM     15  C   UNL     1     -33.095   2.021  11.782  1.00  0.00    +0.006 A 
ATOM     16  C   UNL     1     -31.594   2.138   9.898  1.00  0.00    +0.006 A 
ATOM     17  C   UNL     1     -32.217   1.152  12.432  1.00  0.00    +0.000 A 
ATOM     18  C   UNL     1     -30.716   1.266  10.549  1.00  0.00    +0.000 A 
ATOM     19  C   UNL     1     -31.027   0.775  11.815  1.00  0.00    +0.000 A 
ENDBRANCH  13  14
BRANCH  13  20
ATOM     20  C   UNL     1     -33.247   4.570   8.907  1.00  0.00    +0.023 A 
ATOM     21  C   UNL     1     -33.877   4.832   7.678  1.00  0.00    +0.147 A 
ATOM     22  C   UNL     1     -32.137   5.364   9.229  1.00  0.00    +0.011 A 
ATOM     23  C   UNL     1     -33.434   5.797   6.772  1.00  0.00    +0.112 A 
ATOM     24  C   UNL     1     -31.665   6.342   8.349  1.00  0.00    +0.011 A 
ATOM     25  N   UNL     1     -34.099   5.965   5.608  1.00  0.00    -0.252 NA
ATOM     26  C   UNL     1     -32.305   6.560   7.118  1.00  0.00    +0.004 A 
ATOM     27  C   UNL     1     -33.641   6.910   4.755  1.00  0.00    +0.112 A 
ATOM     28  C   UNL     1     -31.863   7.529   6.207  1.00  0.00    +0.012 A 
ATOM     29  C   UNL     1     -32.540   7.707   5.007  1.00  0.00    +0.021 A 
BRANCH  21  30
ATOM     30  O   UNL     1     -35.003   4.113   7.331  1.00  0.00    -0.505 OA
ATOM     31  H   UNL     1     -35.657   4.341   8.029  1.00  0.00    +0.293 HD
ENDBRANCH  21  30
ENDBRANCH  13  20
ENDBRANCH   1  13
TORSDOF 7
ENDMDL
MODEL 2
REMARK VINA RESULT:   -10.184      4.240      8.723
REMARK INTER + INTRA:         -15.429
REMARK INTER:                 -14.104
REMARK INTRA:                  -1.325
REMARK UNBOUND:                -1.673
REMARK SMILES O=C(O)c1ccccc1N[C@H](c1ccccc1)c1ccc2cccnc2c1O
REMARK SMILES IDX 10 1 9 3 4 4 5 5 8 6 6 7 7 8 2 9 1 10 3 11 11 13 12 14 13 15
REMARK SMILES IDX 17 16 14 17 16 18 15 19 18 20 27 21 19 22 26 23 20 24 25 25
REMARK SMILES IDX 21 26 24 27 22 28 23 29 28 30
REMARK H PARENT 10 2 3 12 28 31
ROOT
ATOM      1  N   UNL     1     -29.071   7.430   7.905  1.00  0.00    -0.373 N 
ATOM      2  H   UNL     1     -29.393   6.551   8.325  1.00  0.00    +0.161 HD
ENDROOT
BRANCH   1   3
ATOM      3  C   UNL     1     -27.724   7.294   7.538  1.00  0.00    +0.049 A 
ATOM      4  C   UNL     1     -26.918   6.254   8.066  1.00  0.00    +0.083 A 
ATOM      5  C   UNL     1     -25.543   6.186   7.766  1.00  0.00    +0.018 A 
ATOM      6  C   UNL     1     -27.076   8.258   6.747  1.00  0.00    +0.026 A 
ATOM      7  C   UNL     1     -24.944   7.142   6.952  1.00  0.00    +0.001 A 
ATOM      8  C   UNL     1     -25.712   8.180   6.445  1.00  0.00    +0.002 A 
BRANCH   4   9
ATOM      9  C   UNL     1     -27.427   5.163   8.945  1.00  0.00    +0.337 C 
ATOM     10  O   UNL     1     -28.524   4.638   8.863  1.00  0.00    -0.246 OA
BRANCH   9  11
ATOM     11  O   UNL     1     -26.576   4.797   9.926  1.00  0.00    -0.478 OA
ATOM     12  H   UNL     1     -25.794   5.365   9.754  1.00  0.00    +0.297 HD
ENDBRANCH   9  11
ENDBRANCH   4   9
ENDBRANCH   1   3
BRANCH   1  13
ATOM     13  C   UNL     1     -30.146   7.974   7.041  1.00  0.00    +0.144 C 
BRANCH  13  14
ATOM     14  C   UNL     1     -30.349   9.480   7.220  1.00  0.00    -0.021 A 
ATOM     15  C   UNL     1     -31.541   9.943   7.812  1.00  0.00    +0.006 A 
ATOM     16  C   UNL     1     -29.400  10.436   6.817  1.00  0.00    +0.006 A 
ATOM     17  C   UNL     1     -31.776  11.308   7.990  1.00  0.00    +0.000 A 
ATOM     18  C   UNL     1     -29.635  11.802   6.998  1.00  0.00    +0.000 A 
ATOM     19  C   UNL     1     -30.822  12.237   7.583  1.00  0.00    +0.000 A 
ENDBRANCH  13  14
BRANCH  13  20
ATOM     20  C   UNL     1     -31.383   7.076   7.009  1.00  0.00    +0.023 A 
ATOM     21  C   UNL     1     -31.710   6.281   8.122  1.00  0.00    +0.147 A 
ATOM     22  C   UNL     1     -32.257   7.020   5.914  1.00  0.00    +0.011 A 
ATOM     23  C   UNL     1     -32.817   5.433   8.167  1.00  0.00    +0.112 A 
ATOM     24  C   UNL     1     -33.377   6.183   5.924  1.00  0.00    +0.011 A 
ATOM     25  N   UNL     1     -33.039   4.696   9.278  1.00  0.00    -0.252 NA
ATOM     26  C   UNL     1     -33.660   5.384   7.043  1.00  0.00    +0.004 A 
ATOM     27  C   UNL     1     -34.122   3.885   9.285  1.00  0.00    +0.112 A 
ATOM     28  C   UNL     1     -34.771   4.532   7.091  1.00  0.00    +0.012 A 
ATOM     29  C   UNL     1     -35.007   3.770   8.229  1.00  0.00    +0.021 A 
BRANCH  21  30
ATOM     30  O   UNL     1     -30.911   6.334   9.246  1.00  0.00    -0.505 OA
ATOM     31  H   UNL     1     -30.441   5.471   9.247  1.00  0.00    +0.293 HD
ENDBRANCH  21  30
ENDBRANCH  13  20
ENDBRANCH   1  13
TORSDOF 7
ENDMDL
MODEL 3
REMARK VINA RESULT:   -10.183      1.832      2.611
REMARK INTER + INTRA:         -15.427
REMARK INTER:                 -13.832
REMARK INTRA:                  -1.596
REMARK UNBOUND:                -1.673
REMARK SMILES O=C(O)c1ccccc1N[C@H](c1ccccc1)c1ccc2cccnc2c1O
REMARK SMILES IDX 10 1 9 3 4 4 5 5 8 6 6 7 7 8 2 9 1 10 3 11 11 13 12 14 13 15
REMARK SMILES IDX 17 16 14 17 16 18 15 19 18 20 27 21 19 22 26 23 20 24 25 25
REMARK SMILES IDX 21 26 24 27 22 28 23 29 28 30
REMARK H PARENT 10 2 3 12 28 31
ROOT
ATOM      1  N   UNL     1     -35.241   4.003  10.794  1.00  0.00    -0.373 N 
ATOM      2  H   UNL     1     -34.622   4.661  11.279  1.00  0.00    +0.161 HD
ENDROOT
BRANCH   1   3
ATOM      3  C   UNL     1     -36.484   4.618  10.580  1.00  0.00    +0.049 A 
ATOM      4  C   UNL     1     -37.684   3.863  10.560  1.00  0.00    +0.083 A 
ATOM      5  C   UNL     1     -38.914   4.477  10.247  1.00  0.00    +0.018 A 
ATOM      6  C   UNL     1     -36.583   5.977  10.239  1.00  0.00    +0.026 A 
ATOM      7  C   UNL     1     -38.976   5.833   9.946  1.00  0.00    +0.001 A 
ATOM      8  C   UNL     1     -37.809   6.582   9.939  1.00  0.00    +0.002 A 
BRANCH   4   9
ATOM      9  C   UNL     1     -37.765   2.407  10.867  1.00  0.00    +0.337 C 
ATOM     10  O   UNL     1     -36.819   1.681  11.117  1.00  0.00    -0.246 OA
BRANCH   9  11
ATOM     11  O   UNL     1     -39.011   1.894  10.804  1.00  0.00    -0.478 OA
ATOM     12  H   UNL     1     -38.869   1.044  10.332  1.00  0.00    +0.297 HD
ENDBRANCH   9  11
ENDBRANCH   4   9
ENDBRANCH   1   3
BRANCH   1  13
ATOM     13  C   UNL     1     -34.458   3.272   9.769  1.00  0.00    +0.144 C 
BRANCH  13  14
ATOM     14  C   UNL     1     -33.311   2.454  10.368  1.00  0.00    -0.021 A 
ATOM     15  C   UNL     1     -33.409   2.016  11.704  1.00  0.00    +0.006 A 
ATOM     16  C   UNL     1     -32.152   2.117   9.649  1.00  0.00    +0.006 A 
ATOM     17  C   UNL     1     -32.386   1.273  12.296  1.00  0.00    +0.000 A 
ATOM     18  C   UNL     1     -31.129   1.371  10.242  1.00  0.00    +0.000 A 
ATOM     19  C   UNL     1     -31.246   0.951  11.565  1.00  0.00    +0.000 A 
ENDBRANCH  13  14
BRANCH  13  20
ATOM     20  C   UNL     1     -34.171   4.123   8.533  1.00  0.00    +0.023 A 
ATOM     21  C   UNL     1     -33.350   5.260   8.632  1.00  0.00    +0.147 A 
ATOM     22  C   UNL     1     -34.665   3.810   7.258  1.00  0.00    +0.011 A 
ATOM     23  C   UNL     1     -33.046   6.091   7.551  1.00  0.00    +0.112 A 
ATOM     24  C   UNL     1     -34.380   4.617   6.152  1.00  0.00    +0.011 A 
ATOM     25  N   UNL     1     -32.259   7.171   7.750  1.00  0.00    -0.252 NA
ATOM     26  C   UNL     1     -33.577   5.760   6.292  1.00  0.00    +0.004 A 
ATOM     27  C   UNL     1     -31.986   7.952   6.680  1.00  0.00    +0.112 A 
ATOM     28  C   UNL     1     -33.270   6.594   5.210  1.00  0.00    +0.012 A 
ATOM     29  C   UNL     1     -32.463   7.709   5.405  1.00  0.00    +0.021 A 
BRANCH  21  30
ATOM     30  O   UNL     1     -32.796   5.588   9.852  1.00  0.00    -0.505 OA
ATOM     31  H   UNL     1     -32.395   4.747  10.167  1.00  0.00    +0.293 HD
ENDBRANCH  21  30
ENDBRANCH  13  20
ENDBRANCH   1  13
TORSDOF 7
ENDMDL
MODEL 4
REMARK VINA RESULT:    -9.918      1.309      1.984
REMARK INTER + INTRA:         -15.069
REMARK INTER:                 -13.535
REMARK INTRA:                  -1.534
REMARK UNBOUND:                -1.673
REMARK SMILES O=C(O)c1ccccc1N[C@H](c1ccccc1)c1ccc2cccnc2c1O
REMARK SMILES IDX 10 1 9 3 4 4 5 5 8 6 6 7 7 8 2 9 1 10 3 11 11 13 12 14 13 15
REMARK SMILES IDX 17 16 14 17 16 18 15 19 18 20 27 21 19 22 26 23 20 24 25 25
REMARK SMILES IDX 21 26 24 27 22 28 23 29 28 30
REMARK H PARENT 10 2 3 12 28 31
ROOT
ATOM      1  N   UNL     1     -34.693   4.227  11.042  1.00  0.00    -0.373 N 
ATOM      2  H   UNL     1     -34.215   5.024  11.476  1.00  0.00    +0.161 HD
ENDROOT
BRANCH   1   3
ATOM      3  C   UNL     1     -36.045   4.553  10.855  1.00  0.00    +0.049 A 
ATOM      4  C   UNL     1     -36.978   3.588  10.396  1.00  0.00    +0.083 A 
ATOM      5  C   UNL     1     -38.310   3.952  10.118  1.00  0.00    +0.018 A 
ATOM      6  C   UNL     1     -36.507   5.874  10.976  1.00  0.00    +0.026 A 
ATOM      7  C   UNL     1     -38.738   5.265  10.281  1.00  0.00    +0.001 A 
ATOM      8  C   UNL     1     -37.834   6.227  10.709  1.00  0.00    +0.002 A 
BRANCH   4   9
ATOM      9  C   UNL     1     -36.658   2.149  10.181  1.00  0.00    +0.337 C 
ATOM     10  O   UNL     1     -36.670   1.283  11.040  1.00  0.00    -0.246 OA
BRANCH   9  11
ATOM     11  O   UNL     1     -36.287   1.843   8.921  1.00  0.00    -0.478 OA
ATOM     12  H   UNL     1     -36.575   2.635   8.415  1.00  0.00    +0.297 HD
ENDBRANCH   9  11
ENDBRANCH   4   9
ENDBRANCH   1   3
BRANCH   1  13
ATOM     13  C   UNL     1     -33.804   3.631  10.017  1.00  0.00    +0.144 C 
BRANCH  13  14
ATOM     14  C   UNL     1     -32.837   2.595  10.596  1.00  0.00    -0.021 A 
ATOM     15  C   UNL     1     -33.134   2.005  11.841  1.00  0.00    +0.006 A 
ATOM     16  C   UNL     1     -31.655   2.201   9.947  1.00  0.00    +0.006 A 
ATOM     17  C   UNL     1     -32.280   1.061  12.414  1.00  0.00    +0.000 A 
ATOM     18  C   UNL     1     -30.801   1.254  10.520  1.00  0.00    +0.000 A 
ATOM     19  C   UNL     1     -31.114   0.686  11.753  1.00  0.00    +0.000 A 
ENDBRANCH  13  14
BRANCH  13  20
ATOM     20  C   UNL     1     -33.251   4.672   9.044  1.00  0.00    +0.023 A 
ATOM     21  C   UNL     1     -33.871   4.878   7.799  1.00  0.00    +0.147 A 
ATOM     22  C   UNL     1     -32.146   5.484   9.341  1.00  0.00    +0.011 A 
ATOM     23  C   UNL     1     -33.422   5.803   6.855  1.00  0.00    +0.112 A 
ATOM     24  C   UNL     1     -31.669   6.424   8.422  1.00  0.00    +0.011 A 
ATOM     25  N   UNL     1     -34.077   5.917   5.678  1.00  0.00    -0.252 NA
ATOM     26  C   UNL     1     -32.298   6.584   7.177  1.00  0.00    +0.004 A 
ATOM     27  C   UNL     1     -33.613   6.824   4.789  1.00  0.00    +0.112 A 
ATOM     28  C   UNL     1     -31.851   7.513   6.228  1.00  0.00    +0.012 A 
ATOM     29  C   UNL     1     -32.517   7.636   5.015  1.00  0.00    +0.021 A 
BRANCH  21  30
ATOM     30  O   UNL     1     -34.991   4.140   7.474  1.00  0.00    -0.505 OA
ATOM     31  H   UNL     1     -35.225   4.446   6.569  1.00  0.00    +0.293 HD
ENDBRANCH  21  30
ENDBRANCH  13  20
ENDBRANCH   1  13
TORSDOF 7
ENDMDL
MODEL 5
REMARK VINA RESULT:    -9.662      2.299      6.678
REMARK INTER + INTRA:         -14.724
REMARK INTER:                 -12.974
REMARK INTRA:                  -1.750
REMARK UNBOUND:                -1.673
REMARK SMILES O=C(O)c1ccccc1N[C@H](c1ccccc1)c1ccc2cccnc2c1O
REMARK SMILES IDX 10 1 9 3 4 4 5 5 8 6 6 7 7 8 2 9 1 10 3 11 11 13 12 14 13 15
REMARK SMILES IDX 17 16 14 17 16 18 15 19 18 20 27 21 19 22 26 23 20 24 25 25
REMARK SMILES IDX 21 26 24 27 22 28 23 29 28 30
REMARK H PARENT 10 2 3 12 28 31
ROOT
ATOM      1  N   UNL     1     -33.493   5.378   8.963  1.00  0.00    -0.373 N 
ATOM      2  H   UNL     1     -32.566   5.246   9.381  1.00  0.00    +0.161 HD
ENDROOT
BRANCH   1   3
ATOM      3  C   UNL     1     -33.338   5.859   7.653  1.00  0.00    +0.049 A 
ATOM      4  C   UNL     1     -32.178   6.576   7.265  1.00  0.00    +0.083 A 
ATOM      5  C   UNL     1     -32.078   7.138   5.976  1.00  0.00    +0.018 A 
ATOM      6  C   UNL     1     -34.378   5.778   6.712  1.00  0.00    +0.026 A 
ATOM      7  C   UNL     1     -33.117   7.009   5.061  1.00  0.00    +0.001 A 
ATOM      8  C   UNL     1     -34.269   6.330   5.431  1.00  0.00    +0.002 A 
BRANCH   4   9
ATOM      9  C   UNL     1     -30.991   6.787   8.140  1.00  0.00    +0.337 C 
ATOM     10  O   UNL     1     -30.750   6.180   9.169  1.00  0.00    -0.246 OA
BRANCH   9  11
ATOM     11  O   UNL     1     -30.169   7.778   7.733  1.00  0.00    -0.478 OA
ATOM     12  H   UNL     1     -29.340   7.582   8.221  1.00  0.00    +0.297 HD
ENDBRANCH   9  11
ENDBRANCH   4   9
ENDBRANCH   1   3
BRANCH   1  13
ATOM     13  C   UNL     1     -34.368   4.253   9.365  1.00  0.00    +0.144 C 
BRANCH  13  14
ATOM     14  C   UNL     1     -35.782   4.703   9.742  1.00  0.00    -0.021 A 
ATOM     15  C   UNL     1     -36.880   4.169   9.038  1.00  0.00    +0.006 A 
ATOM     16  C   UNL     1     -36.045   5.635  10.760  1.00  0.00    +0.006 A 
ATOM     17  C   UNL     1     -38.187   4.553   9.340  1.00  0.00    +0.000 A 
ATOM     18  C   UNL     1     -37.355   6.019  11.063  1.00  0.00    +0.000 A 
ATOM     19  C   UNL     1     -38.424   5.479  10.353  1.00  0.00    +0.000 A 
ENDBRANCH  13  14
BRANCH  13  20
ATOM     20  C   UNL     1     -33.659   3.257  10.282  1.00  0.00    +0.023 A 
ATOM     21  C   UNL     1     -32.342   2.850  10.002  1.00  0.00    +0.147 A 
ATOM     22  C   UNL     1     -34.248   2.733  11.442  1.00  0.00    +0.011 A 
ATOM     23  C   UNL     1     -31.630   1.941  10.786  1.00  0.00    +0.112 A 
ATOM     24  C   UNL     1     -33.565   1.822  12.254  1.00  0.00    +0.011 A 
ATOM     25  N   UNL     1     -30.374   1.600  10.425  1.00  0.00    -0.252 NA
ATOM     26  C   UNL     1     -32.260   1.418  11.929  1.00  0.00    +0.004 A 
ATOM     27  C   UNL     1     -29.715   0.717  11.209  1.00  0.00    +0.112 A 
ATOM     28  C   UNL     1     -31.543   0.506  12.715  1.00  0.00    +0.012 A 
ATOM     29  C   UNL     1     -30.250   0.149  12.350  1.00  0.00    +0.021 A 
BRANCH  21  30
ATOM     30  O   UNL     1     -31.696   3.372   8.900  1.00  0.00    -0.505 OA
ATOM     31  H   UNL     1     -31.856   2.709   8.192  1.00  0.00    +0.293 HD
ENDBRANCH  21  30
ENDBRANCH  13  20
ENDBRANCH   1  13
TORSDOF 7
ENDMDL
MODEL 6
REMARK VINA RESULT:    -9.410      1.314      2.008
REMARK INTER + INTRA:         -14.383
REMARK INTER:                 -13.083
REMARK INTRA:                  -1.300
REMARK UNBOUND:                -1.673
REMARK SMILES O=C(O)c1ccccc1N[C@H](c1ccccc1)c1ccc2cccnc2c1O
REMARK SMILES IDX 10 1 9 3 4 4 5 5 8 6 6 7 7 8 2 9 1 10 3 11 11 13 12 14 13 15
REMARK SMILES IDX 17 16 14 17 16 18 15 19 18 20 27 21 19 22 26 23 20 24 25 25
REMARK SMILES IDX 21 26 24 27 22 28 23 29 28 30
REMARK H PARENT 10 2 3 12 28 31
ROOT
ATOM      1  N   UNL     1     -35.338   3.729  10.408  1.00  0.00    -0.373 N 
ATOM      2  H   UNL     1     -35.484   4.723  10.198  1.00  0.00    +0.161 HD
ENDROOT
BRANCH   1   3
ATOM      3  C   UNL     1     -36.578   3.133  10.681  1.00  0.00    +0.049 A 
ATOM      4  C   UNL     1     -37.705   3.913  11.047  1.00  0.00    +0.083 A 
ATOM      5  C   UNL     1     -38.917   3.296  11.415  1.00  0.00    +0.018 A 
ATOM      6  C   UNL     1     -36.726   1.738  10.744  1.00  0.00    +0.026 A 
ATOM      7  C   UNL     1     -39.034   1.911  11.434  1.00  0.00    +0.001 A 
ATOM      8  C   UNL     1     -37.936   1.132  11.100  1.00  0.00    +0.002 A 
BRANCH   4   9
ATOM      9  C   UNL     1     -37.723   5.403  11.067  1.00  0.00    +0.337 C 
ATOM     10  O   UNL     1     -38.591   6.110  10.584  1.00  0.00    -0.246 OA
BRANCH   9  11
ATOM     11  O   UNL     1     -36.638   5.964  11.640  1.00  0.00    -0.478 OA
ATOM     12  H   UNL     1     -36.946   6.877  11.833  1.00  0.00    +0.297 HD
ENDBRANCH   9  11
ENDBRANCH   4   9
ENDBRANCH   1   3
BRANCH   1  13
ATOM     13  C   UNL     1     -34.311   3.189   9.486  1.00  0.00    +0.144 C 
BRANCH  13  14
ATOM     14  C   UNL     1     -33.151   2.509  10.220  1.00  0.00    -0.021 A 
ATOM     15  C   UNL     1     -31.926   2.333   9.546  1.00  0.00    +0.006 A 
ATOM     16  C   UNL     1     -33.248   2.043  11.542  1.00  0.00    +0.006 A 
ATOM     17  C   UNL     1     -30.842   1.713  10.170  1.00  0.00    +0.000 A 
ATOM     18  C   UNL     1     -32.161   1.424  12.167  1.00  0.00    +0.000 A 
ATOM     19  C   UNL     1     -30.960   1.258  11.481  1.00  0.00    +0.000 A 
ENDBRANCH  13  14
BRANCH  13  20
ATOM     20  C   UNL     1     -33.979   4.152   8.347  1.00  0.00    +0.023 A 
ATOM     21  C   UNL     1     -33.216   5.307   8.595  1.00  0.00    +0.147 A 
ATOM     22  C   UNL     1     -34.375   3.930   7.020  1.00  0.00    +0.011 A 
ATOM     23  C   UNL     1     -32.878   6.236   7.610  1.00  0.00    +0.112 A 
ATOM     24  C   UNL     1     -34.053   4.837   6.006  1.00  0.00    +0.011 A 
ATOM     25  N   UNL     1     -32.154   7.325   7.951  1.00  0.00    -0.252 NA
ATOM     26  C   UNL     1     -33.311   5.993   6.294  1.00  0.00    +0.004 A 
ATOM     27  C   UNL     1     -31.845   8.203   6.970  1.00  0.00    +0.112 A 
ATOM     28  C   UNL     1     -32.969   6.928   5.308  1.00  0.00    +0.012 A 
ATOM     29  C   UNL     1     -32.226   8.051   5.649  1.00  0.00    +0.021 A 
BRANCH  21  30
ATOM     30  O   UNL     1     -32.759   5.550   9.874  1.00  0.00    -0.505 OA
ATOM     31  H   UNL     1     -32.300   4.718  10.126  1.00  0.00    +0.293 HD
ENDBRANCH  21  30
ENDBRANCH  13  20
ENDBRANCH   1  13
TORSDOF 7
ENDMDL
MODEL 7
REMARK VINA RESULT:    -9.331      6.986      9.312
REMARK INTER + INTRA:         -14.277
REMARK INTER:                 -12.659
REMARK INTRA:                  -1.618
REMARK UNBOUND:                -1.673
REMARK SMILES O=C(O)c1ccccc1N[C@H](c1ccccc1)c1ccc2cccnc2c1O
REMARK SMILES IDX 10 1 9 3 4 4 5 5 8 6 6 7 7 8 2 9 1 10 3 11 11 13 12 14 13 15
REMARK SMILES IDX 17 16 14 17 16 18 15 19 18 20 27 21 19 22 26 23 20 24 25 25
REMARK SMILES IDX 21 26 24 27 22 28 23 29 28 30
REMARK H PARENT 10 2 3 12 28 31
ROOT
ATOM      1  N   UNL     1     -28.393  -0.905  13.492  1.00  0.00    -0.373 N 
ATOM      2  H   UNL     1     -27.807  -0.682  14.304  1.00  0.00    +0.161 HD
ENDROOT
BRANCH   1   3
ATOM      3  C   UNL     1     -29.335  -1.877  13.863  1.00  0.00    +0.049 A 
ATOM      4  C   UNL     1     -29.913  -1.886  15.158  1.00  0.00    +0.083 A 
ATOM      5  C   UNL     1     -30.782  -2.923  15.550  1.00  0.00    +0.018 A 
ATOM      6  C   UNL     1     -29.642  -2.962  13.024  1.00  0.00    +0.026 A 
ATOM      7  C   UNL     1     -31.087  -3.964  14.679  1.00  0.00    +0.001 A 
ATOM      8  C   UNL     1     -30.514  -3.983  13.416  1.00  0.00    +0.002 A 
BRANCH   4   9
ATOM      9  C   UNL     1     -29.678  -0.835  16.188  1.00  0.00    +0.337 C 
ATOM     10  O   UNL     1     -29.566   0.360  15.971  1.00  0.00    -0.246 OA
BRANCH   9  11
ATOM     11  O   UNL     1     -29.542  -1.308  17.444  1.00  0.00    -0.478 OA
ATOM     12  H   UNL     1     -29.173  -0.535  17.925  1.00  0.00    +0.297 HD
ENDBRANCH   9  11
ENDBRANCH   4   9
ENDBRANCH   1   3
BRANCH   1  13
ATOM     13  C   UNL     1     -28.694   0.345  12.757  1.00  0.00    +0.144 C 
BRANCH  13  14
ATOM     14  C   UNL     1     -29.827   0.180  11.740  1.00  0.00    -0.021 A 
ATOM     15  C   UNL     1     -31.116   0.643  12.073  1.00  0.00    +0.006 A 
ATOM     16  C   UNL     1     -29.648  -0.419  10.482  1.00  0.00    +0.006 A 
ATOM     17  C   UNL     1     -32.182   0.509  11.182  1.00  0.00    +0.000 A 
ATOM     18  C   UNL     1     -30.716  -0.551   9.590  1.00  0.00    +0.000 A 
ATOM     19  C   UNL     1     -31.982  -0.088   9.940  1.00  0.00    +0.000 A 
ENDBRANCH  13  14
BRANCH  13  20
ATOM     20  C   UNL     1     -27.431   1.087  12.318  1.00  0.00    +0.023 A 
ATOM     21  C   UNL     1     -26.308   0.368  11.871  1.00  0.00    +0.147 A 
ATOM     22  C   UNL     1     -27.333   2.485  12.303  1.00  0.00    +0.011 A 
ATOM     23  C   UNL     1     -25.118   0.971  11.460  1.00  0.00    +0.112 A 
ATOM     24  C   UNL     1     -26.159   3.125  11.896  1.00  0.00    +0.011 A 
ATOM     25  N   UNL     1     -24.088   0.194  11.061  1.00  0.00    -0.252 NA
ATOM     26  C   UNL     1     -25.047   2.376  11.480  1.00  0.00    +0.004 A 
ATOM     27  C   UNL     1     -22.951   0.814  10.671  1.00  0.00    +0.112 A 
ATOM     28  C   UNL     1     -23.851   2.978  11.066  1.00  0.00    +0.012 A 
ATOM     29  C   UNL     1     -22.786   2.186  10.656  1.00  0.00    +0.021 A 
BRANCH  21  30
ATOM     30  O   UNL     1     -26.367  -1.009  11.818  1.00  0.00    -0.505 OA
ATOM     31  H   UNL     1     -26.138  -1.224  10.887  1.00  0.00    +0.293 HD
ENDBRANCH  21  30
ENDBRANCH  13  20
ENDBRANCH   1  13
TORSDOF 7
ENDMDL
MODEL 8
REMARK VINA RESULT:    -9.189      4.607      8.438
REMARK INTER + INTRA:         -14.085
REMARK INTER:                 -14.325
REMARK INTRA:                   0.240
REMARK UNBOUND:                -1.673
REMARK SMILES O=C(O)c1ccccc1N[C@H](c1ccccc1)c1ccc2cccnc2c1O
REMARK SMILES IDX 10 1 9 3 4 4 5 5 8 6 6 7 7 8 2 9 1 10 3 11 11 13 12 14 13 15
REMARK SMILES IDX 17 16 14 17 16 18 15 19 18 20 27 21 19 22 26 23 20 24 25 25
REMARK SMILES IDX 21 26 24 27 22 28 23 29 28 30
REMARK H PARENT 10 2 3 12 28 31
ROOT
ATOM      1  N   UNL     1     -29.070   8.889   6.216  1.00  0.00    -0.373 N 
ATOM      2  H   UNL     1     -30.049   8.848   5.914  1.00  0.00    +0.161 HD
ENDROOT
BRANCH   1   3
ATOM      3  C   UNL     1     -28.585  10.191   6.014  1.00  0.00    +0.049 A 
ATOM      4  C   UNL     1     -29.412  11.325   6.221  1.00  0.00    +0.083 A 
ATOM      5  C   UNL     1     -28.944  12.619   5.921  1.00  0.00    +0.018 A 
ATOM      6  C   UNL     1     -27.313  10.425   5.466  1.00  0.00    +0.026 A 
ATOM      7  C   UNL     1     -27.665  12.813   5.409  1.00  0.00    +0.001 A 
ATOM      8  C   UNL     1     -26.851  11.714   5.179  1.00  0.00    +0.002 A 
BRANCH   4   9
ATOM      9  C   UNL     1     -30.797  11.264   6.768  1.00  0.00    +0.337 C 
ATOM     10  O   UNL     1     -31.100  10.926   7.899  1.00  0.00    -0.246 OA
BRANCH   9  11
ATOM     11  O   UNL     1     -31.760  11.578   5.876  1.00  0.00    -0.478 OA
ATOM     12  H   UNL     1     -32.046  10.697   5.551  1.00  0.00    +0.297 HD
ENDBRANCH   9  11
ENDBRANCH   4   9
ENDBRANCH   1   3
BRANCH   1  13
ATOM     13  C   UNL     1     -28.916   8.100   7.460  1.00  0.00    +0.144 C 
BRANCH  13  14
ATOM     14  C   UNL     1     -27.553   7.408   7.561  1.00  0.00    -0.021 A 
ATOM     15  C   UNL     1     -26.457   7.952   6.862  1.00  0.00    +0.006 A 
ATOM     16  C   UNL     1     -27.338   6.244   8.318  1.00  0.00    +0.006 A 
ATOM     17  C   UNL     1     -25.197   7.355   6.917  1.00  0.00    +0.000 A 
ATOM     18  C   UNL     1     -26.075   5.647   8.374  1.00  0.00    +0.000 A 
ATOM     19  C   UNL     1     -25.007   6.201   7.674  1.00  0.00    +0.000 A 
ENDBRANCH  13  14
BRANCH  13  20
ATOM     20  C   UNL     1     -30.166   7.287   7.799  1.00  0.00    +0.023 A 
ATOM     21  C   UNL     1     -31.355   7.485   7.075  1.00  0.00    +0.147 A 
ATOM     22  C   UNL     1     -30.190   6.303   8.797  1.00  0.00    +0.011 A 
ATOM     23  C   UNL     1     -32.538   6.788   7.328  1.00  0.00    +0.112 A 
ATOM     24  C   UNL     1     -31.355   5.583   9.077  1.00  0.00    +0.011 A 
ATOM     25  N   UNL     1     -33.635   7.060   6.588  1.00  0.00    -0.252 NA
ATOM     26  C   UNL     1     -32.532   5.824   8.352  1.00  0.00    +0.004 A 
ATOM     27  C   UNL     1     -34.763   6.365   6.861  1.00  0.00    +0.112 A 
ATOM     28  C   UNL     1     -33.721   5.125   8.602  1.00  0.00    +0.012 A 
ATOM     29  C   UNL     1     -34.855   5.400   7.847  1.00  0.00    +0.021 A 
BRANCH  21  30
ATOM     30  O   UNL     1     -31.375   8.407   6.049  1.00  0.00    -0.505 OA
ATOM     31  H   UNL     1     -32.208   8.210   5.566  1.00  0.00    +0.293 HD
ENDBRANCH  21  30
ENDBRANCH  13  20
ENDBRANCH   1  13
TORSDOF 7
ENDMDL
MODEL 9
REMARK VINA RESULT:    -8.828      3.946      7.679
REMARK INTER + INTRA:         -13.598
REMARK INTER:                 -11.672
REMARK INTRA:                  -1.926
REMARK UNBOUND:                -1.673
REMARK SMILES O=C(O)c1ccccc1N[C@H](c1ccccc1)c1ccc2cccnc2c1O
REMARK SMILES IDX 10 1 9 3 4 4 5 5 8 6 6 7 7 8 2 9 1 10 3 11 11 13 12 14 13 15
REMARK SMILES IDX 17 16 14 17 16 18 15 19 18 20 27 21 19 22 26 23 20 24 25 25
REMARK SMILES IDX 21 26 24 27 22 28 23 29 28 30
REMARK H PARENT 10 2 3 12 28 31
ROOT
ATOM      1  N   UNL     1     -29.110   0.865  10.191  1.00  0.00    -0.373 N 
ATOM      2  H   UNL     1     -29.466   1.365   9.370  1.00  0.00    +0.161 HD
ENDROOT
BRANCH   1   3
ATOM      3  C   UNL     1     -27.720   0.715  10.066  1.00  0.00    +0.049 A 
ATOM      4  C   UNL     1     -26.861   1.842  10.004  1.00  0.00    +0.083 A 
ATOM      5  C   UNL     1     -25.479   1.681   9.780  1.00  0.00    +0.018 A 
ATOM      6  C   UNL     1     -27.131  -0.543   9.855  1.00  0.00    +0.026 A 
ATOM      7  C   UNL     1     -24.929   0.416   9.607  1.00  0.00    +0.001 A 
ATOM      8  C   UNL     1     -25.757  -0.696   9.643  1.00  0.00    +0.002 A 
BRANCH   4   9
ATOM      9  C   UNL     1     -27.313   3.251  10.175  1.00  0.00    +0.337 C 
ATOM     10  O   UNL     1     -28.167   3.810   9.508  1.00  0.00    -0.246 OA
BRANCH   9  11
ATOM     11  O   UNL     1     -26.656   3.933  11.137  1.00  0.00    -0.478 OA
ATOM     12  H   UNL     1     -25.991   3.280  11.446  1.00  0.00    +0.297 HD
ENDBRANCH   9  11
ENDBRANCH   4   9
ENDBRANCH   1   3
BRANCH   1  13
ATOM     13  C   UNL     1     -29.814   1.355  11.399  1.00  0.00    +0.144 C 
BRANCH  13  14
ATOM     14  C   UNL     1     -29.409   0.607  12.671  1.00  0.00    -0.021 A 
ATOM     15  C   UNL     1     -29.507  -0.799  12.697  1.00  0.00    +0.006 A 
ATOM     16  C   UNL     1     -28.942   1.255  13.827  1.00  0.00    +0.006 A 
ATOM     17  C   UNL     1     -29.155  -1.526  13.835  1.00  0.00    +0.000 A 
ATOM     18  C   UNL     1     -28.588   0.526  14.967  1.00  0.00    +0.000 A 
ATOM     19  C   UNL     1     -28.696  -0.863  14.970  1.00  0.00    +0.000 A 
ENDBRANCH  13  14
BRANCH  13  20
ATOM     20  C   UNL     1     -31.302   1.603  11.149  1.00  0.00    +0.023 A 
ATOM     21  C   UNL     1     -31.717   2.364  10.042  1.00  0.00    +0.147 A 
ATOM     22  C   UNL     1     -32.312   1.074  11.965  1.00  0.00    +0.011 A 
ATOM     23  C   UNL     1     -33.054   2.640   9.751  1.00  0.00    +0.112 A 
ATOM     24  C   UNL     1     -33.662   1.326  11.704  1.00  0.00    +0.011 A 
ATOM     25  N   UNL     1     -33.352   3.395   8.670  1.00  0.00    -0.252 NA
ATOM     26  C   UNL     1     -34.039   2.112  10.603  1.00  0.00    +0.004 A 
ATOM     27  C   UNL     1     -34.658   3.641   8.420  1.00  0.00    +0.112 A 
ATOM     28  C   UNL     1     -35.381   2.389  10.307  1.00  0.00    +0.012 A 
ATOM     29  C   UNL     1     -35.697   3.166   9.200  1.00  0.00    +0.021 A 
BRANCH  21  30
ATOM     30  O   UNL     1     -30.768   2.870   9.178  1.00  0.00    -0.505 OA
ATOM     31  H   UNL     1     -31.111   3.759   8.937  1.00  0.00    +0.293 HD
ENDBRANCH  21  30
ENDBRANCH  13  20
ENDBRANCH   1  13
TORSDOF 7
ENDMDL
