REMARK SMILES CCCCNc1nc(C)nc2c1cnn2-c1ccc([N+](=O)[O-])cc1
REMARK SMILES IDX 5 1 4 3 3 4 2 5 1 6 6 7 12 8 7 9 13 10 11 11 8 12 14 13
REMARK SMILES IDX 15 14 10 15 9 16 16 17 17 18 24 19 18 20 23 21 19 22 20 23
REMARK SMILES IDX 21 24 22 25
REMARK H PARENT 5 2
ROOT
ATOM      1  N   UNL     1      -2.577   0.551   0.177  1.00  0.00    -0.369 N 
ATOM      2  H   UNL     1      -2.493   1.517   0.473  1.00  0.00    +0.162 HD
ENDROOT
BRANCH   1   3
ATOM      3  C   UNL     1      -3.729  -0.157   0.720  1.00  0.00    +0.114 C 
BRANCH   3   4
ATOM      4  C   UNL     1      -4.987   0.707   0.594  1.00  0.00    +0.021 C 
BRANCH   4   5
ATOM      5  C   UNL     1      -5.412   0.919  -0.862  1.00  0.00    -0.002 C 
ATOM      6  C   UNL     1      -6.690   1.737  -0.953  1.00  0.00    +0.004 C 
ENDBRANCH   4   5
ENDBRANCH   3   4
ENDBRANCH   1   3
BRANCH   1   7
ATOM      7  C   UNL     1      -1.362  -0.133   0.231  1.00  0.00    +0.140 A 
ATOM      8  C   UNL     1      -0.132   0.520   0.091  1.00  0.00    +0.082 A 
ATOM      9  N   UNL     1      -1.338  -1.475   0.407  1.00  0.00    -0.216 NA
ATOM     10  C   UNL     1       0.317   1.832  -0.122  1.00  0.00    +0.150 A 
ATOM     11  C   UNL     1       1.023  -0.241   0.154  1.00  0.00    +0.168 A 
ATOM     12  C   UNL     1      -0.157  -2.126   0.458  1.00  0.00    +0.130 A 
ATOM     13  N   UNL     1       1.645   1.928  -0.174  1.00  0.00    -0.174 NA
ATOM     14  N   UNL     1       2.089   0.643  -0.012  1.00  0.00    -0.215 N 
ATOM     15  N   UNL     1       1.063  -1.576   0.337  1.00  0.00    -0.213 NA
ATOM     16  C   UNL     1      -0.217  -3.614   0.623  1.00  0.00    +0.090 C 
BRANCH  14  17
ATOM     17  C   UNL     1       3.496   0.381  -0.029  1.00  0.00    +0.068 A 
ATOM     18  C   UNL     1       4.389   1.454  -0.214  1.00  0.00    +0.035 A 
ATOM     19  C   UNL     1       4.014  -0.912   0.133  1.00  0.00    +0.035 A 
ATOM     20  C   UNL     1       5.771   1.242  -0.237  1.00  0.00    +0.088 A 
ATOM     21  C   UNL     1       5.398  -1.131   0.111  1.00  0.00    +0.088 A 
ATOM     22  C   UNL     1       6.271  -0.054  -0.074  1.00  0.00    +0.269 A 
BRANCH  22  23
ATOM     23  N   UNL     1       7.721  -0.285  -0.096  1.00  0.00    +0.062 N 
ATOM     24  O   UNL     1       8.121  -1.449   0.054  1.00  0.00    -0.258 OA
ATOM     25  O   UNL     1       8.460   0.696  -0.262  1.00  0.00    -0.258 OA
ENDBRANCH  22  23
ENDBRANCH  14  17
ENDBRANCH   1   7
TORSDOF 6
