REMARK SMILES NC(=S)NN=Cc1cccc2ccccc12
REMARK SMILES IDX 1 1 2 2 3 3 4 4 5 8 6 9 7 10 16 11 8 12 15 13 11 14 9 15
REMARK SMILES IDX 14 16 12 17 10 18 13 19
REMARK H PARENT 1 5 1 6 4 7
ROOT
ATOM      1  N   UNL     1       5.272   0.416  -0.831  1.00  0.00    -0.375 N 
ATOM      2  C   UNL     1       4.004   0.572  -0.337  1.00  0.00    +0.184 C 
ATOM      3  S   UNL     1       3.339   2.098  -0.308  1.00  0.00    -0.040 S 
ATOM      4  N   UNL     1       3.461  -0.636   0.075  1.00  0.00    -0.254 N 
ATOM      5  H   UNL     1       5.679   1.240  -1.260  1.00  0.00    +0.159 HD
ATOM      6  H   UNL     1       5.517  -0.465  -1.262  1.00  0.00    +0.159 HD
ATOM      7  H   UNL     1       4.165  -1.244   0.485  1.00  0.00    +0.193 HD
ENDROOT
BRANCH   4   8
ATOM      8  N   UNL     1       2.261  -0.747   0.733  1.00  0.00    -0.181 NA
ATOM      9  C   UNL     1       1.208  -0.439   0.035  1.00  0.00    +0.142 C 
BRANCH   9  10
ATOM     10  C   UNL     1      -0.160  -0.483   0.609  1.00  0.00    +0.002 A 
ATOM     11  C   UNL     1      -1.291  -0.006  -0.114  1.00  0.00    -0.010 A 
ATOM     12  C   UNL     1      -0.304  -1.031   1.893  1.00  0.00    +0.010 A 
ATOM     13  C   UNL     1      -1.250   0.591  -1.401  1.00  0.00    +0.009 A 
ATOM     14  C   UNL     1      -2.565  -0.124   0.502  1.00  0.00    -0.018 A 
ATOM     15  C   UNL     1      -1.560  -1.130   2.478  1.00  0.00    +0.001 A 
ATOM     16  C   UNL     1      -2.407   1.032  -2.049  1.00  0.00    +0.001 A 
ATOM     17  C   UNL     1      -3.718   0.323  -0.165  1.00  0.00    +0.009 A 
ATOM     18  C   UNL     1      -2.681  -0.684   1.784  1.00  0.00    +0.009 A 
ATOM     19  C   UNL     1      -3.641   0.895  -1.432  1.00  0.00    +0.001 A 
ENDBRANCH   9  10
ENDBRANCH   4   8
TORSDOF 2
