REMARK SMILES CSc1nc(C)nc2c1cnn2-c1ccccc1
REMARK SMILES IDX 3 1 9 2 10 3 11 4 12 5 8 6 7 7 5 8 4 9 6 10 2 11 1 12 13 13
REMARK SMILES IDX 14 14 18 15 15 16 17 17 16 18
REMARK H PARENT
ROOT
ATOM      1  C   UNL     1      -2.518   0.126   0.783  1.00  0.00    +0.111 A 
ATOM      2  C   UNL     1      -1.202   0.351   1.175  1.00  0.00    +0.072 A 
ATOM      3  C   UNL     1      -0.515   0.847   2.292  1.00  0.00    +0.149 A 
ATOM      4  N   UNL     1       0.807   0.841   2.135  1.00  0.00    -0.174 NA
ATOM      5  N   UNL     1       1.006   0.327   0.880  1.00  0.00    -0.215 N 
ATOM      6  C   UNL     1      -0.210   0.018   0.268  1.00  0.00    +0.167 A 
ATOM      7  N   UNL     1      -0.427  -0.503  -0.958  1.00  0.00    -0.213 NA
ATOM      8  C   UNL     1      -1.729  -0.673  -1.246  1.00  0.00    +0.129 A 
ATOM      9  N   UNL     1      -2.770  -0.393  -0.437  1.00  0.00    -0.226 NA
ATOM     10  C   UNL     1      -2.054  -1.274  -2.580  1.00  0.00    +0.090 C 
ENDROOT
BRANCH   1  11
ATOM     11  S   UNL     1      -3.837   0.523   1.891  1.00  0.00    -0.109 SA
ATOM     12  C   UNL     1      -5.266   0.039   0.887  1.00  0.00    +0.092 C 
ENDBRANCH   1  11
BRANCH   5  13
ATOM     13  C   UNL     1       2.339   0.179   0.383  1.00  0.00    +0.067 A 
ATOM     14  C   UNL     1       3.419   0.566   1.196  1.00  0.00    +0.028 A 
ATOM     15  C   UNL     1       2.604  -0.340  -0.890  1.00  0.00    +0.028 A 
ATOM     16  C   UNL     1       4.734   0.436   0.743  1.00  0.00    +0.002 A 
ATOM     17  C   UNL     1       3.924  -0.468  -1.339  1.00  0.00    +0.002 A 
ATOM     18  C   UNL     1       4.986  -0.081  -0.525  1.00  0.00    +0.000 A 
ENDBRANCH   5  13
TORSDOF 2
