REMARK SMILES Clc1c2c(nc3ccccc13)CCCC2
REMARK SMILES IDX 1 1 2 2 3 3 15 4 14 5 13 6 12 7 4 8 5 9 6 10 11 11 10 12
REMARK SMILES IDX 9 13 8 14 7 15
REMARK H PARENT
ROOT
ATOM      1 Cl   UNL     1       0.496  -3.092  -0.104  1.00  0.00    -0.083 Cl
ATOM      2  C   UNL     1       0.490  -1.349  -0.058  1.00  0.00    +0.055 A 
ATOM      3  C   UNL     1      -0.740  -0.675   0.013  1.00  0.00    -0.007 A 
ATOM      4  C   UNL     1      -2.060  -1.408   0.029  1.00  0.00    +0.039 C 
ATOM      5  C   UNL     1      -3.257  -0.533   0.403  1.00  0.00    +0.005 C 
ATOM      6  C   UNL     1      -3.201   0.796  -0.334  1.00  0.00    +0.007 C 
ATOM      7  C   UNL     1      -1.944   1.556   0.073  1.00  0.00    +0.056 C 
ATOM      8  C   UNL     1      -0.694   0.717  -0.002  1.00  0.00    +0.046 A 
ATOM      9  N   UNL     1       0.465   1.416  -0.039  1.00  0.00    -0.252 NA
ATOM     10  C   UNL     1       1.632   0.759  -0.088  1.00  0.00    +0.072 A 
ATOM     11  C   UNL     1       1.718  -0.643  -0.104  1.00  0.00    +0.019 A 
ATOM     12  C   UNL     1       3.006  -1.242  -0.164  1.00  0.00    +0.012 A 
ATOM     13  C   UNL     1       4.165  -0.469  -0.204  1.00  0.00    +0.001 A 
ATOM     14  C   UNL     1       4.062   0.913  -0.186  1.00  0.00    +0.002 A 
ATOM     15  C   UNL     1       2.801   1.509  -0.129  1.00  0.00    +0.029 A 
ENDROOT
TORSDOF 0
