MODEL 1
REMARK VINA RESULT:    -8.827      0.000      0.000
REMARK INTER + INTRA:         -13.375
REMARK INTER:                 -12.956
REMARK INTRA:                  -0.419
REMARK UNBOUND:                -0.419
REMARK SMILES CCN(CC)CCCNc1c2ccc(Cl)cc2nc2ccc(OC)cc12
REMARK SMILES IDX 7 1 6 2 3 3 2 4 1 5 4 6 5 7 8 8 9 9 10 11 26 12 11 13 25 14
REMARK SMILES IDX 19 15 17 16 12 17 22 18 20 19 18 20 16 21 13 22 21 23 14 24
REMARK SMILES IDX 15 25 23 26 24 27
REMARK H PARENT 9 10
ROOT
ATOM      1  C   UNL     1     -32.351   6.815   7.566  1.00  0.00    +0.037 C 
ENDROOT
BRANCH   1   2
ATOM      2  C   UNL     1     -31.971   5.754   8.607  1.00  0.00    +0.086 C 
BRANCH   2   3
ATOM      3  N   UNL     1     -33.019   4.744   8.840  1.00  0.00    -0.304 NA
BRANCH   3   4
ATOM      4  C   UNL     1     -33.222   4.393  10.258  1.00  0.00    +0.081 C 
ATOM      5  C   UNL     1     -34.536   4.849  10.885  1.00  0.00    +0.021 C 
ENDBRANCH   3   4
BRANCH   3   6
ATOM      6  C   UNL     1     -34.295   5.118   8.203  1.00  0.00    +0.081 C 
ATOM      7  C   UNL     1     -34.788   4.069   7.210  1.00  0.00    +0.021 C 
ENDBRANCH   3   6
ENDBRANCH   2   3
ENDBRANCH   1   2
BRANCH   1   8
ATOM      8  C   UNL     1     -31.103   7.503   7.010  1.00  0.00    +0.114 C 
BRANCH   8   9
ATOM      9  N   UNL     1     -30.091   7.723   8.057  1.00  0.00    -0.384 N 
ATOM     10  H   UNL     1     -29.996   6.917   8.668  1.00  0.00    +0.160 HD
BRANCH   9  11
ATOM     11  C   UNL     1     -28.826   8.159   7.564  1.00  0.00    +0.053 A 
ATOM     12  C   UNL     1     -27.681   7.314   7.620  1.00  0.00    +0.028 A 
ATOM     13  C   UNL     1     -28.725   9.436   6.946  1.00  0.00    +0.024 A 
ATOM     14  C   UNL     1     -27.646   6.031   8.227  1.00  0.00    +0.059 A 
ATOM     15  C   UNL     1     -26.500   7.798   7.027  1.00  0.00    +0.073 A 
ATOM     16  C   UNL     1     -27.480   9.801   6.402  1.00  0.00    +0.074 A 
ATOM     17  C   UNL     1     -29.792  10.363   6.881  1.00  0.00    +0.014 A 
ATOM     18  C   UNL     1     -26.490   5.249   8.245  1.00  0.00    +0.119 A 
ATOM     19  C   UNL     1     -25.362   7.005   7.047  1.00  0.00    +0.033 A 
ATOM     20  N   UNL     1     -26.410   8.997   6.436  1.00  0.00    -0.248 NA
ATOM     21  C   UNL     1     -27.336  11.047   5.808  1.00  0.00    +0.049 A 
ATOM     22  C   UNL     1     -29.632  11.610   6.281  1.00  0.00    +0.021 A 
ATOM     23  C   UNL     1     -25.340   5.741   7.645  1.00  0.00    +0.048 A 
ATOM     24  C   UNL     1     -28.398  11.947   5.748  1.00  0.00    +0.043 A 
ATOM     25 Cl   UNL     1     -28.174  13.486   5.011  1.00  0.00    -0.084 Cl
BRANCH  18  26
ATOM     26  O   UNL     1     -26.622   4.044   8.875  1.00  0.00    -0.497 OA
ATOM     27  C   UNL     1     -26.054   3.930  10.174  1.00  0.00    +0.278 C 
ENDBRANCH  18  26
ENDBRANCH   9  11
ENDBRANCH   8   9
ENDBRANCH   1   8
TORSDOF 8
ENDMDL
MODEL 2
REMARK VINA RESULT:    -8.572      2.188      5.626
REMARK INTER + INTRA:         -13.000
REMARK INTER:                 -12.076
REMARK INTRA:                  -0.924
REMARK UNBOUND:                -0.419
REMARK SMILES CCN(CC)CCCNc1c2ccc(Cl)cc2nc2ccc(OC)cc12
REMARK SMILES IDX 7 1 6 2 3 3 2 4 1 5 4 6 5 7 8 8 9 9 10 11 26 12 11 13 25 14
REMARK SMILES IDX 19 15 17 16 12 17 22 18 20 19 18 20 16 21 13 22 21 23 14 24
REMARK SMILES IDX 15 25 23 26 24 27
REMARK H PARENT 9 10
ROOT
ATOM      1  C   UNL     1     -25.372   5.185   8.558  1.00  0.00    +0.037 C 
ENDROOT
BRANCH   1   2
ATOM      2  C   UNL     1     -25.239   4.066   9.600  1.00  0.00    +0.086 C 
BRANCH   2   3
ATOM      3  N   UNL     1     -26.460   3.258   9.769  1.00  0.00    -0.304 NA
BRANCH   3   4
ATOM      4  C   UNL     1     -26.348   1.875   9.270  1.00  0.00    +0.081 C 
ATOM      5  C   UNL     1     -25.101   1.103   9.693  1.00  0.00    +0.021 C 
ENDBRANCH   3   4
BRANCH   3   6
ATOM      6  C   UNL     1     -26.944   3.278  11.161  1.00  0.00    +0.081 C 
ATOM      7  C   UNL     1     -25.901   3.808  12.141  1.00  0.00    +0.021 C 
ENDBRANCH   3   6
ENDBRANCH   2   3
ENDBRANCH   1   2
BRANCH   1   8
ATOM      8  C   UNL     1     -26.825   5.334   8.103  1.00  0.00    +0.114 C 
BRANCH   8   9
ATOM      9  N   UNL     1     -27.537   6.360   8.883  1.00  0.00    -0.384 N 
ATOM     10  H   UNL     1     -26.902   6.911   9.453  1.00  0.00    +0.160 HD
BRANCH   9  11
ATOM     11  C   UNL     1     -28.399   7.190   8.106  1.00  0.00    +0.053 A 
ATOM     12  C   UNL     1     -29.805   6.970   8.077  1.00  0.00    +0.028 A 
ATOM     13  C   UNL     1     -27.847   8.295   7.402  1.00  0.00    +0.024 A 
ATOM     14  C   UNL     1     -30.473   5.893   8.718  1.00  0.00    +0.059 A 
ATOM     15  C   UNL     1     -30.581   7.895   7.355  1.00  0.00    +0.073 A 
ATOM     16  C   UNL     1     -28.737   9.138   6.710  1.00  0.00    +0.074 A 
ATOM     17  C   UNL     1     -26.461   8.572   7.334  1.00  0.00    +0.014 A 
ATOM     18  C   UNL     1     -31.858   5.736   8.654  1.00  0.00    +0.119 A 
ATOM     19  C   UNL     1     -31.958   7.728   7.307  1.00  0.00    +0.033 A 
ATOM     20  N   UNL     1     -30.061   8.942   6.701  1.00  0.00    -0.248 NA
ATOM     21  C   UNL     1     -28.236  10.216   5.995  1.00  0.00    +0.049 A 
ATOM     22  C   UNL     1     -25.973   9.659   6.612  1.00  0.00    +0.021 A 
ATOM     23  C   UNL     1     -32.606   6.666   7.946  1.00  0.00    +0.048 A 
ATOM     24  C   UNL     1     -26.868  10.477   5.942  1.00  0.00    +0.043 A 
ATOM     25 Cl   UNL     1     -26.287  11.819   5.034  1.00  0.00    -0.084 Cl
BRANCH  18  26
ATOM     26  O   UNL     1     -32.343   4.645   9.317  1.00  0.00    -0.497 OA
ATOM     27  C   UNL     1     -33.738   4.625   9.593  1.00  0.00    +0.278 C 
ENDBRANCH  18  26
ENDBRANCH   9  11
ENDBRANCH   8   9
ENDBRANCH   1   8
TORSDOF 8
ENDMDL
MODEL 3
REMARK VINA RESULT:    -8.487      5.189      9.851
REMARK INTER + INTRA:         -12.876
REMARK INTER:                 -12.215
REMARK INTRA:                  -0.661
REMARK UNBOUND:                -0.419
REMARK SMILES CCN(CC)CCCNc1c2ccc(Cl)cc2nc2ccc(OC)cc12
REMARK SMILES IDX 7 1 6 2 3 3 2 4 1 5 4 6 5 7 8 8 9 9 10 11 26 12 11 13 25 14
REMARK SMILES IDX 19 15 17 16 12 17 22 18 20 19 18 20 16 21 13 22 21 23 14 24
REMARK SMILES IDX 15 25 23 26 24 27
REMARK H PARENT 9 10
ROOT
ATOM      1  C   UNL     1     -32.244   6.239   8.306  1.00  0.00    +0.037 C 
ENDROOT
BRANCH   1   2
ATOM      2  C   UNL     1     -32.515   7.514   7.496  1.00  0.00    +0.086 C 
BRANCH   2   3
ATOM      3  N   UNL     1     -31.543   7.752   6.413  1.00  0.00    -0.304 NA
BRANCH   3   4
ATOM      4  C   UNL     1     -32.119   7.697   5.056  1.00  0.00    +0.081 C 
ATOM      5  C   UNL     1     -33.409   6.897   4.901  1.00  0.00    +0.021 C 
ENDBRANCH   3   4
BRANCH   3   6
ATOM      6  C   UNL     1     -30.791   9.004   6.615  1.00  0.00    +0.081 C 
ATOM      7  C   UNL     1     -31.575  10.040   7.417  1.00  0.00    +0.021 C 
ENDBRANCH   3   6
ENDBRANCH   2   3
ENDBRANCH   1   2
BRANCH   1   8
ATOM      8  C   UNL     1     -33.547   5.493   8.598  1.00  0.00    +0.114 C 
BRANCH   8   9
ATOM      9  N   UNL     1     -33.673   5.156  10.026  1.00  0.00    -0.384 N 
ATOM     10  H   UNL     1     -34.176   5.871  10.542  1.00  0.00    +0.160 HD
BRANCH   9  11
ATOM     11  C   UNL     1     -34.207   3.857  10.274  1.00  0.00    +0.053 A 
ATOM     12  C   UNL     1     -35.593   3.668  10.541  1.00  0.00    +0.028 A 
ATOM     13  C   UNL     1     -33.349   2.726  10.188  1.00  0.00    +0.024 A 
ATOM     14  C   UNL     1     -36.546   4.713  10.674  1.00  0.00    +0.059 A 
ATOM     15  C   UNL     1     -36.041   2.342  10.684  1.00  0.00    +0.073 A 
ATOM     16  C   UNL     1     -33.926   1.454  10.362  1.00  0.00    +0.074 A 
ATOM     17  C   UNL     1     -31.953   2.813   9.971  1.00  0.00    +0.014 A 
ATOM     18  C   UNL     1     -37.894   4.460  10.933  1.00  0.00    +0.119 A 
ATOM     19  C   UNL     1     -37.385   2.107  10.934  1.00  0.00    +0.033 A 
ATOM     20  N   UNL     1     -35.234   1.277  10.592  1.00  0.00    -0.248 NA
ATOM     21  C   UNL     1     -33.119   0.327  10.304  1.00  0.00    +0.049 A 
ATOM     22  C   UNL     1     -31.156   1.672   9.915  1.00  0.00    +0.021 A 
ATOM     23  C   UNL     1     -38.316   3.145  11.058  1.00  0.00    +0.048 A 
ATOM     24  C   UNL     1     -31.747   0.430  10.086  1.00  0.00    +0.043 A 
ATOM     25 Cl   UNL     1     -30.779  -0.992  10.031  1.00  0.00    -0.084 Cl
BRANCH  18  26
ATOM     26  O   UNL     1     -38.676   5.574  11.039  1.00  0.00    -0.497 OA
ATOM     27  C   UNL     1     -38.874   6.338   9.855  1.00  0.00    +0.278 C 
ENDBRANCH  18  26
ENDBRANCH   9  11
ENDBRANCH   8   9
ENDBRANCH   1   8
TORSDOF 8
ENDMDL
MODEL 4
REMARK VINA RESULT:    -8.235      5.125      8.273
REMARK INTER + INTRA:         -12.506
REMARK INTER:                 -11.655
REMARK INTRA:                  -0.850
REMARK UNBOUND:                -0.419
REMARK SMILES CCN(CC)CCCNc1c2ccc(Cl)cc2nc2ccc(OC)cc12
REMARK SMILES IDX 7 1 6 2 3 3 2 4 1 5 4 6 5 7 8 8 9 9 10 11 26 12 11 13 25 14
REMARK SMILES IDX 19 15 17 16 12 17 22 18 20 19 18 20 16 21 13 22 21 23 14 24
REMARK SMILES IDX 15 25 23 26 24 27
REMARK H PARENT 9 10
ROOT
ATOM      1  C   UNL     1     -32.553   1.887  10.188  1.00  0.00    +0.037 C 
ENDROOT
BRANCH   1   2
ATOM      2  C   UNL     1     -33.665   2.867   9.792  1.00  0.00    +0.086 C 
BRANCH   2   3
ATOM      3  N   UNL     1     -33.349   4.278  10.078  1.00  0.00    -0.304 NA
BRANCH   3   4
ATOM      4  C   UNL     1     -33.561   5.192   8.940  1.00  0.00    +0.081 C 
ATOM      5  C   UNL     1     -32.307   5.797   8.317  1.00  0.00    +0.021 C 
ENDBRANCH   3   4
BRANCH   3   6
ATOM      6  C   UNL     1     -34.049   4.765  11.281  1.00  0.00    +0.081 C 
ATOM      7  C   UNL     1     -35.501   5.147  11.004  1.00  0.00    +0.021 C 
ENDBRANCH   3   6
ENDBRANCH   2   3
ENDBRANCH   1   2
BRANCH   1   8
ATOM      8  C   UNL     1     -31.174   2.484   9.897  1.00  0.00    +0.114 C 
BRANCH   8   9
ATOM      9  N   UNL     1     -30.116   1.460   9.948  1.00  0.00    -0.384 N 
ATOM     10  H   UNL     1     -29.658   1.342   9.049  1.00  0.00    +0.160 HD
BRANCH   9  11
ATOM     11  C   UNL     1     -29.170   1.650  10.998  1.00  0.00    +0.053 A 
ATOM     12  C   UNL     1     -28.049   2.512  10.834  1.00  0.00    +0.028 A 
ATOM     13  C   UNL     1     -29.390   1.017  12.252  1.00  0.00    +0.024 A 
ATOM     14  C   UNL     1     -27.709   3.183   9.629  1.00  0.00    +0.059 A 
ATOM     15  C   UNL     1     -27.222   2.705  11.956  1.00  0.00    +0.073 A 
ATOM     16  C   UNL     1     -28.478   1.288  13.289  1.00  0.00    +0.074 A 
ATOM     17  C   UNL     1     -30.448   0.110  12.500  1.00  0.00    +0.014 A 
ATOM     18  C   UNL     1     -26.595   4.020   9.535  1.00  0.00    +0.119 A 
ATOM     19  C   UNL     1     -26.123   3.546  11.847  1.00  0.00    +0.033 A 
ATOM     20  N   UNL     1     -27.436   2.116  13.140  1.00  0.00    -0.248 NA
ATOM     21  C   UNL     1     -28.647   0.675  14.522  1.00  0.00    +0.049 A 
ATOM     22  C   UNL     1     -30.604  -0.498  13.744  1.00  0.00    +0.021 A 
ATOM     23  C   UNL     1     -25.800   4.205  10.656  1.00  0.00    +0.048 A 
ATOM     24  C   UNL     1     -29.697  -0.213  14.751  1.00  0.00    +0.043 A 
ATOM     25 Cl   UNL     1     -29.864  -0.961  16.292  1.00  0.00    -0.084 Cl
BRANCH  18  26
ATOM     26  O   UNL     1     -26.404   4.583   8.305  1.00  0.00    -0.497 OA
ATOM     27  C   UNL     1     -26.620   5.985   8.197  1.00  0.00    +0.278 C 
ENDBRANCH  18  26
ENDBRANCH   9  11
ENDBRANCH   8   9
ENDBRANCH   1   8
TORSDOF 8
ENDMDL
MODEL 5
REMARK VINA RESULT:    -7.900      3.758      8.152
REMARK INTER + INTRA:         -12.013
REMARK INTER:                 -11.356
REMARK INTRA:                  -0.658
REMARK UNBOUND:                -0.419
REMARK SMILES CCN(CC)CCCNc1c2ccc(Cl)cc2nc2ccc(OC)cc12
REMARK SMILES IDX 7 1 6 2 3 3 2 4 1 5 4 6 5 7 8 8 9 9 10 11 26 12 11 13 25 14
REMARK SMILES IDX 19 15 17 16 12 17 22 18 20 19 18 20 16 21 13 22 21 23 14 24
REMARK SMILES IDX 15 25 23 26 24 27
REMARK H PARENT 9 10
ROOT
ATOM      1  C   UNL     1     -31.945   7.278   8.138  1.00  0.00    +0.037 C 
ENDROOT
BRANCH   1   2
ATOM      2  C   UNL     1     -30.737   7.605   7.250  1.00  0.00    +0.086 C 
BRANCH   2   3
ATOM      3  N   UNL     1     -30.311   9.015   7.317  1.00  0.00    -0.304 NA
BRANCH   3   4
ATOM      4  C   UNL     1     -29.076   9.313   6.568  1.00  0.00    +0.081 C 
ATOM      5  C   UNL     1     -27.825   9.572   7.402  1.00  0.00    +0.021 C 
ENDBRANCH   3   4
BRANCH   3   6
ATOM      6  C   UNL     1     -31.395   9.936   6.932  1.00  0.00    +0.081 C 
ATOM      7  C   UNL     1     -31.334  11.265   7.680  1.00  0.00    +0.021 C 
ENDBRANCH   3   6
ENDBRANCH   2   3
ENDBRANCH   1   2
BRANCH   1   8
ATOM      8  C   UNL     1     -31.736   5.954   8.875  1.00  0.00    +0.114 C 
BRANCH   8   9
ATOM      9  N   UNL     1     -32.524   4.865   8.272  1.00  0.00    -0.384 N 
ATOM     10  H   UNL     1     -31.949   4.249   7.705  1.00  0.00    +0.160 HD
BRANCH   9  11
ATOM     11  C   UNL     1     -33.315   4.132   9.205  1.00  0.00    +0.053 A 
ATOM     12  C   UNL     1     -32.760   3.064   9.965  1.00  0.00    +0.028 A 
ATOM     13  C   UNL     1     -34.666   4.521   9.424  1.00  0.00    +0.024 A 
ATOM     14  C   UNL     1     -31.437   2.568   9.824  1.00  0.00    +0.059 A 
ATOM     15  C   UNL     1     -33.595   2.460  10.923  1.00  0.00    +0.073 A 
ATOM     16  C   UNL     1     -35.393   3.824  10.408  1.00  0.00    +0.074 A 
ATOM     17  C   UNL     1     -35.320   5.538   8.690  1.00  0.00    +0.014 A 
ATOM     18  C   UNL     1     -30.950   1.518  10.605  1.00  0.00    +0.119 A 
ATOM     19  C   UNL     1     -33.094   1.423  11.696  1.00  0.00    +0.033 A 
ATOM     20  N   UNL     1     -34.863   2.835  11.137  1.00  0.00    -0.248 NA
ATOM     21  C   UNL     1     -36.720   4.161  10.638  1.00  0.00    +0.049 A 
ATOM     22  C   UNL     1     -36.653   5.864   8.933  1.00  0.00    +0.021 A 
ATOM     23  C   UNL     1     -31.786   0.945  11.552  1.00  0.00    +0.048 A 
ATOM     24  C   UNL     1     -37.348   5.168   9.909  1.00  0.00    +0.043 A 
ATOM     25 Cl   UNL     1     -38.998   5.547  10.219  1.00  0.00    -0.084 Cl
BRANCH  18  26
ATOM     26  O   UNL     1     -29.660   1.157  10.341  1.00  0.00    -0.497 OA
ATOM     27  C   UNL     1     -28.648   2.108  10.648  1.00  0.00    +0.278 C 
ENDBRANCH  18  26
ENDBRANCH   9  11
ENDBRANCH   8   9
ENDBRANCH   1   8
TORSDOF 8
ENDMDL
MODEL 6
REMARK VINA RESULT:    -7.658      6.437      9.106
REMARK INTER + INTRA:         -11.659
REMARK INTER:                 -11.003
REMARK INTRA:                  -0.657
REMARK UNBOUND:                -0.419
REMARK SMILES CCN(CC)CCCNc1c2ccc(Cl)cc2nc2ccc(OC)cc12
REMARK SMILES IDX 7 1 6 2 3 3 2 4 1 5 4 6 5 7 8 8 9 9 10 11 26 12 11 13 25 14
REMARK SMILES IDX 19 15 17 16 12 17 22 18 20 19 18 20 16 21 13 22 21 23 14 24
REMARK SMILES IDX 15 25 23 26 24 27
REMARK H PARENT 9 10
ROOT
ATOM      1  C   UNL     1     -33.035   2.284  10.336  1.00  0.00    +0.037 C 
ENDROOT
BRANCH   1   2
ATOM      2  C   UNL     1     -33.973   2.747   9.212  1.00  0.00    +0.086 C 
BRANCH   2   3
ATOM      3  N   UNL     1     -34.979   3.734   9.643  1.00  0.00    -0.304 NA
BRANCH   3   4
ATOM      4  C   UNL     1     -34.489   4.710  10.634  1.00  0.00    +0.081 C 
ATOM      5  C   UNL     1     -35.554   5.437  11.451  1.00  0.00    +0.021 C 
ENDBRANCH   3   4
BRANCH   3   6
ATOM      6  C   UNL     1     -35.604   4.418   8.496  1.00  0.00    +0.081 C 
ATOM      7  C   UNL     1     -34.652   5.383   7.794  1.00  0.00    +0.021 C 
ENDBRANCH   3   6
ENDBRANCH   2   3
ENDBRANCH   1   2
BRANCH   1   8
ATOM      8  C   UNL     1     -31.575   2.568   9.978  1.00  0.00    +0.114 C 
BRANCH   8   9
ATOM      9  N   UNL     1     -30.863   1.341   9.585  1.00  0.00    -0.384 N 
ATOM     10  H   UNL     1     -30.297   1.480   8.753  1.00  0.00    +0.160 HD
BRANCH   9  11
ATOM     11  C   UNL     1     -30.110   0.741  10.637  1.00  0.00    +0.053 A 
ATOM     12  C   UNL     1     -28.905   1.331  11.111  1.00  0.00    +0.028 A 
ATOM     13  C   UNL     1     -30.610  -0.434  11.264  1.00  0.00    +0.024 A 
ATOM     14  C   UNL     1     -28.292   2.487  10.558  1.00  0.00    +0.059 A 
ATOM     15  C   UNL     1     -28.281   0.714  12.212  1.00  0.00    +0.073 A 
ATOM     16  C   UNL     1     -29.880  -0.954  12.349  1.00  0.00    +0.074 A 
ATOM     17  C   UNL     1     -31.772  -1.119  10.838  1.00  0.00    +0.014 A 
ATOM     18  C   UNL     1     -27.110   3.020  11.073  1.00  0.00    +0.119 A 
ATOM     19  C   UNL     1     -27.110   1.261  12.717  1.00  0.00    +0.033 A 
ATOM     20  N   UNL     1     -28.759  -0.385  12.809  1.00  0.00    -0.248 NA
ATOM     21  C   UNL     1     -30.325  -2.110  12.976  1.00  0.00    +0.049 A 
ATOM     22  C   UNL     1     -32.205  -2.278  11.477  1.00  0.00    +0.021 A 
ATOM     23  C   UNL     1     -26.518   2.403  12.166  1.00  0.00    +0.048 A 
ATOM     24  C   UNL     1     -31.474  -2.770  12.546  1.00  0.00    +0.043 A 
ATOM     25 Cl   UNL     1     -31.985  -4.207  13.345  1.00  0.00    -0.084 Cl
BRANCH  18  26
ATOM     26  O   UNL     1     -26.649   4.128  10.422  1.00  0.00    -0.497 OA
ATOM     27  C   UNL     1     -25.238   4.255  10.285  1.00  0.00    +0.278 C 
ENDBRANCH  18  26
ENDBRANCH   9  11
ENDBRANCH   8   9
ENDBRANCH   1   8
TORSDOF 8
ENDMDL
MODEL 7
REMARK VINA RESULT:    -7.486      6.139      9.901
REMARK INTER + INTRA:         -11.406
REMARK INTER:                 -10.769
REMARK INTRA:                  -0.637
REMARK UNBOUND:                -0.419
REMARK SMILES CCN(CC)CCCNc1c2ccc(Cl)cc2nc2ccc(OC)cc12
REMARK SMILES IDX 7 1 6 2 3 3 2 4 1 5 4 6 5 7 8 8 9 9 10 11 26 12 11 13 25 14
REMARK SMILES IDX 19 15 17 16 12 17 22 18 20 19 18 20 16 21 13 22 21 23 14 24
REMARK SMILES IDX 15 25 23 26 24 27
REMARK H PARENT 9 10
ROOT
ATOM      1  C   UNL     1     -31.788  -0.368  11.379  1.00  0.00    +0.037 C 
ENDROOT
BRANCH   1   2
ATOM      2  C   UNL     1     -31.349  -1.069  12.672  1.00  0.00    +0.086 C 
BRANCH   2   3
ATOM      3  N   UNL     1     -30.180  -0.448  13.321  1.00  0.00    -0.304 NA
BRANCH   3   4
ATOM      4  C   UNL     1     -29.129  -0.005  12.386  1.00  0.00    +0.081 C 
ATOM      5  C   UNL     1     -28.157  -1.079  11.906  1.00  0.00    +0.021 C 
ENDBRANCH   3   4
BRANCH   3   6
ATOM      6  C   UNL     1     -30.573   0.647  14.227  1.00  0.00    +0.081 C 
ATOM      7  C   UNL     1     -29.509   0.952  15.278  1.00  0.00    +0.021 C 
ENDBRANCH   3   6
ENDBRANCH   2   3
ENDBRANCH   1   2
BRANCH   1   8
ATOM      8  C   UNL     1     -33.067   0.440  11.607  1.00  0.00    +0.114 C 
BRANCH   8   9
ATOM      9  N   UNL     1     -33.824   0.625  10.357  1.00  0.00    -0.384 N 
ATOM     10  H   UNL     1     -34.536  -0.088  10.235  1.00  0.00    +0.160 HD
BRANCH   9  11
ATOM     11  C   UNL     1     -34.360   1.936  10.188  1.00  0.00    +0.053 A 
ATOM     12  C   UNL     1     -35.730   2.213  10.458  1.00  0.00    +0.028 A 
ATOM     13  C   UNL     1     -33.492   2.996   9.806  1.00  0.00    +0.024 A 
ATOM     14  C   UNL     1     -36.699   1.242  10.824  1.00  0.00    +0.059 A 
ATOM     15  C   UNL     1     -36.144   3.553  10.348  1.00  0.00    +0.073 A 
ATOM     16  C   UNL     1     -34.040   4.290   9.724  1.00  0.00    +0.074 A 
ATOM     17  C   UNL     1     -32.128   2.815   9.474  1.00  0.00    +0.014 A 
ATOM     18  C   UNL     1     -38.029   1.580  11.080  1.00  0.00    +0.119 A 
ATOM     19  C   UNL     1     -37.468   3.873  10.613  1.00  0.00    +0.033 A 
ATOM     20  N   UNL     1     -35.324   4.553   9.999  1.00  0.00    -0.248 NA
ATOM     21  C   UNL     1     -33.230   5.348   9.336  1.00  0.00    +0.049 A 
ATOM     22  C   UNL     1     -31.329   3.888   9.086  1.00  0.00    +0.021 A 
ATOM     23  C   UNL     1     -38.414   2.909  10.978  1.00  0.00    +0.048 A 
ATOM     24  C   UNL     1     -31.888   5.153   9.017  1.00  0.00    +0.043 A 
ATOM     25 Cl   UNL     1     -30.921   6.492   8.530  1.00  0.00    -0.084 Cl
BRANCH  18  26
ATOM     26  O   UNL     1     -38.834   0.528  11.413  1.00  0.00    -0.497 OA
ATOM     27  C   UNL     1     -40.238   0.734  11.313  1.00  0.00    +0.278 C 
ENDBRANCH  18  26
ENDBRANCH   9  11
ENDBRANCH   8   9
ENDBRANCH   1   8
TORSDOF 8
ENDMDL
MODEL 8
REMARK VINA RESULT:    -7.446      4.476      8.151
REMARK INTER + INTRA:         -11.348
REMARK INTER:                 -10.769
REMARK INTRA:                  -0.579
REMARK UNBOUND:                -0.419
REMARK SMILES CCN(CC)CCCNc1c2ccc(Cl)cc2nc2ccc(OC)cc12
REMARK SMILES IDX 7 1 6 2 3 3 2 4 1 5 4 6 5 7 8 8 9 9 10 11 26 12 11 13 25 14
REMARK SMILES IDX 19 15 17 16 12 17 22 18 20 19 18 20 16 21 13 22 21 23 14 24
REMARK SMILES IDX 15 25 23 26 24 27
REMARK H PARENT 9 10
ROOT
ATOM      1  C   UNL     1     -30.779   2.511   9.920  1.00  0.00    +0.037 C 
ENDROOT
BRANCH   1   2
ATOM      2  C   UNL     1     -30.424   1.188  10.612  1.00  0.00    +0.086 C 
BRANCH   2   3
ATOM      3  N   UNL     1     -29.682   1.356  11.875  1.00  0.00    -0.304 NA
BRANCH   3   4
ATOM      4  C   UNL     1     -29.898   0.275  12.855  1.00  0.00    +0.081 C 
ATOM      5  C   UNL     1     -30.694   0.644  14.103  1.00  0.00    +0.021 C 
ENDBRANCH   3   4
BRANCH   3   6
ATOM      6  C   UNL     1     -28.243   1.574  11.642  1.00  0.00    +0.081 C 
ATOM      7  C   UNL     1     -27.364   0.846  12.655  1.00  0.00    +0.021 C 
ENDBRANCH   3   6
ENDBRANCH   2   3
ENDBRANCH   1   2
BRANCH   1   8
ATOM      8  C   UNL     1     -32.293   2.643   9.741  1.00  0.00    +0.114 C 
BRANCH   8   9
ATOM      9  N   UNL     1     -32.832   3.786  10.496  1.00  0.00    -0.384 N 
ATOM     10  H   UNL     1     -32.109   4.272  11.018  1.00  0.00    +0.160 HD
BRANCH   9  11
ATOM     11  C   UNL     1     -33.610   4.689   9.712  1.00  0.00    +0.053 A 
ATOM     12  C   UNL     1     -32.991   5.662   8.878  1.00  0.00    +0.028 A 
ATOM     13  C   UNL     1     -35.027   4.567   9.716  1.00  0.00    +0.024 A 
ATOM     14  C   UNL     1     -31.593   5.897   8.801  1.00  0.00    +0.059 A 
ATOM     15  C   UNL     1     -33.839   6.447   8.074  1.00  0.00    +0.073 A 
ATOM     16  C   UNL     1     -35.757   5.424   8.871  1.00  0.00    +0.074 A 
ATOM     17  C   UNL     1     -35.736   3.663  10.542  1.00  0.00    +0.014 A 
ATOM     18  C   UNL     1     -31.048   6.867   7.958  1.00  0.00    +0.119 A 
ATOM     19  C   UNL     1     -33.281   7.401   7.236  1.00  0.00    +0.033 A 
ATOM     20  N   UNL     1     -35.173   6.324   8.071  1.00  0.00    -0.248 NA
ATOM     21  C   UNL     1     -37.143   5.349   8.860  1.00  0.00    +0.049 A 
ATOM     22  C   UNL     1     -37.127   3.600  10.519  1.00  0.00    +0.021 A 
ATOM     23  C   UNL     1     -31.901   7.621   7.165  1.00  0.00    +0.048 A 
ATOM     24  C   UNL     1     -37.826   4.450   9.677  1.00  0.00    +0.043 A 
ATOM     25 Cl   UNL     1     -39.546   4.397   9.641  1.00  0.00    -0.084 Cl
BRANCH  18  26
ATOM     26  O   UNL     1     -29.687   6.971   8.008  1.00  0.00    -0.497 OA
ATOM     27  C   UNL     1     -29.105   8.117   7.397  1.00  0.00    +0.278 C 
ENDBRANCH  18  26
ENDBRANCH   9  11
ENDBRANCH   8   9
ENDBRANCH   1   8
TORSDOF 8
ENDMDL
MODEL 9
REMARK VINA RESULT:    -7.285      4.835      8.257
REMARK INTER + INTRA:         -11.112
REMARK INTER:                 -10.478
REMARK INTRA:                  -0.634
REMARK UNBOUND:                -0.419
REMARK SMILES CCN(CC)CCCNc1c2ccc(Cl)cc2nc2ccc(OC)cc12
REMARK SMILES IDX 7 1 6 2 3 3 2 4 1 5 4 6 5 7 8 8 9 9 10 11 26 12 11 13 25 14
REMARK SMILES IDX 19 15 17 16 12 17 22 18 20 19 18 20 16 21 13 22 21 23 14 24
REMARK SMILES IDX 15 25 23 26 24 27
REMARK H PARENT 9 10
ROOT
ATOM      1  C   UNL     1     -30.849   1.978  10.182  1.00  0.00    +0.037 C 
ENDROOT
BRANCH   1   2
ATOM      2  C   UNL     1     -30.641   0.472  10.392  1.00  0.00    +0.086 C 
BRANCH   2   3
ATOM      3  N   UNL     1     -29.923   0.135  11.635  1.00  0.00    -0.304 NA
BRANCH   3   4
ATOM      4  C   UNL     1     -30.799  -0.226  12.765  1.00  0.00    +0.081 C 
ATOM      5  C   UNL     1     -30.659   0.622  14.025  1.00  0.00    +0.021 C 
ENDBRANCH   3   4
BRANCH   3   6
ATOM      6  C   UNL     1     -28.897  -0.900  11.413  1.00  0.00    +0.081 C 
ATOM      7  C   UNL     1     -27.887  -0.509  10.337  1.00  0.00    +0.021 C 
ENDBRANCH   3   6
ENDBRANCH   2   3
ENDBRANCH   1   2
BRANCH   1   8
ATOM      8  C   UNL     1     -32.300   2.278   9.798  1.00  0.00    +0.114 C 
BRANCH   8   9
ATOM      9  N   UNL     1     -32.786   3.514  10.433  1.00  0.00    -0.384 N 
ATOM     10  H   UNL     1     -32.030   4.049  10.850  1.00  0.00    +0.160 HD
BRANCH   9  11
ATOM     11  C   UNL     1     -33.597   4.326   9.585  1.00  0.00    +0.053 A 
ATOM     12  C   UNL     1     -35.006   4.139   9.513  1.00  0.00    +0.028 A 
ATOM     13  C   UNL     1     -32.991   5.382   8.851  1.00  0.00    +0.024 A 
ATOM     14  C   UNL     1     -35.725   3.111  10.179  1.00  0.00    +0.059 A 
ATOM     15  C   UNL     1     -35.731   5.046   8.718  1.00  0.00    +0.073 A 
ATOM     16  C   UNL     1     -33.832   6.211   8.085  1.00  0.00    +0.074 A 
ATOM     17  C   UNL     1     -31.596   5.621   8.822  1.00  0.00    +0.014 A 
ATOM     18  C   UNL     1     -37.111   2.985  10.070  1.00  0.00    +0.119 A 
ATOM     19  C   UNL     1     -37.109   4.911   8.627  1.00  0.00    +0.033 A 
ATOM     20  N   UNL     1     -35.160   6.048   8.036  1.00  0.00    -0.248 NA
ATOM     21  C   UNL     1     -33.277   7.241   7.340  1.00  0.00    +0.049 A 
ATOM     22  C   UNL     1     -31.054   6.659   8.068  1.00  0.00    +0.021 A 
ATOM     23  C   UNL     1     -37.808   3.897   9.291  1.00  0.00    +0.048 A 
ATOM     24  C   UNL     1     -31.902   7.465   7.326  1.00  0.00    +0.043 A 
ATOM     25 Cl   UNL     1     -31.253   8.747   6.378  1.00  0.00    -0.084 Cl
BRANCH  18  26
ATOM     26  O   UNL     1     -37.648   1.939  10.766  1.00  0.00    -0.497 OA
ATOM     27  C   UNL     1     -38.893   2.168  11.414  1.00  0.00    +0.278 C 
ENDBRANCH  18  26
ENDBRANCH   9  11
ENDBRANCH   8   9
ENDBRANCH   1   8
TORSDOF 8
ENDMDL
