MODEL 1
REMARK VINA RESULT:   -11.107      0.000      0.000
REMARK INTER + INTRA:         -13.746
REMARK INTER:                 -13.055
REMARK INTRA:                  -0.691
REMARK UNBOUND:                -0.691
REMARK SMILES O=C1O[C@@](c2ccccc2)(c2cccc3ccccc23)C[C@H]1c1ccccc1
REMARK SMILES IDX 1 1 2 2 3 3 4 4 21 5 22 6 23 7 24 8 28 9 25 10 27 11 26 12
REMARK SMILES IDX 5 13 6 14 10 15 7 16 9 17 8 18 11 19 20 20 12 21 19 22 15 23
REMARK SMILES IDX 13 24 18 25 16 26 14 27 17 28
REMARK H PARENT
ROOT
ATOM      1  O   UNL     1     -31.836  -0.120   9.387  1.00  0.00    -0.252 OA
ATOM      2  C   UNL     1     -32.390   0.863   9.853  1.00  0.00    +0.314 C 
ATOM      3  O   UNL     1     -33.659   1.236   9.512  1.00  0.00    -0.449 OA
ATOM      4  C   UNL     1     -34.004   2.511  10.101  1.00  0.00    +0.164 C 
ATOM      5  C   UNL     1     -33.074   2.522  11.328  1.00  0.00    +0.079 C 
ATOM      6  C   UNL     1     -31.806   1.862  10.815  1.00  0.00    +0.134 C 
ENDROOT
BRANCH   6   7
ATOM      7  C   UNL     1     -30.952   1.319  11.936  1.00  0.00    -0.034 A 
ATOM      8  C   UNL     1     -29.556   1.304  11.785  1.00  0.00    +0.004 A 
ATOM      9  C   UNL     1     -31.498   0.874  13.151  1.00  0.00    +0.004 A 
ATOM     10  C   UNL     1     -28.730   0.843  12.812  1.00  0.00    +0.000 A 
ATOM     11  C   UNL     1     -30.670   0.413  14.176  1.00  0.00    +0.000 A 
ATOM     12  C   UNL     1     -29.288   0.397  14.007  1.00  0.00    +0.000 A 
ENDBRANCH   6   7
BRANCH   4  13
ATOM     13  C   UNL     1     -33.653   3.679   9.155  1.00  0.00    +0.000 A 
ATOM     14  C   UNL     1     -32.658   4.622   9.470  1.00  0.00    +0.008 A 
ATOM     15  C   UNL     1     -34.340   3.834   7.935  1.00  0.00    +0.008 A 
ATOM     16  C   UNL     1     -32.369   5.682   8.604  1.00  0.00    +0.000 A 
ATOM     17  C   UNL     1     -34.050   4.893   7.071  1.00  0.00    +0.000 A 
ATOM     18  C   UNL     1     -33.065   5.817   7.407  1.00  0.00    +0.000 A 
ENDBRANCH   4  13
BRANCH   4  19
ATOM     19  C   UNL     1     -35.512   2.511  10.448  1.00  0.00    +0.008 A 
ATOM     20  C   UNL     1     -36.253   3.717  10.710  1.00  0.00    -0.011 A 
ATOM     21  C   UNL     1     -36.188   1.273  10.563  1.00  0.00    +0.009 A 
ATOM     22  C   UNL     1     -35.713   5.027  10.684  1.00  0.00    +0.009 A 
ATOM     23  C   UNL     1     -37.636   3.617  11.030  1.00  0.00    -0.018 A 
ATOM     24  C   UNL     1     -37.540   1.201  10.878  1.00  0.00    +0.001 A 
ATOM     25  C   UNL     1     -36.485   6.166  10.942  1.00  0.00    +0.001 A 
ATOM     26  C   UNL     1     -38.401   4.767  11.285  1.00  0.00    +0.009 A 
ATOM     27  C   UNL     1     -38.258   2.366  11.103  1.00  0.00    +0.009 A 
ATOM     28  C   UNL     1     -37.831   6.035  11.241  1.00  0.00    +0.001 A 
ENDBRANCH   4  19
TORSDOF 3
ENDMDL
MODEL 2
REMARK VINA RESULT:   -10.912      4.879      8.371
REMARK INTER + INTRA:         -13.517
REMARK INTER:                 -12.310
REMARK INTRA:                  -1.207
REMARK UNBOUND:                -0.691
REMARK SMILES O=C1O[C@@](c2ccccc2)(c2cccc3ccccc23)C[C@H]1c1ccccc1
REMARK SMILES IDX 1 1 2 2 3 3 4 4 21 5 22 6 23 7 24 8 28 9 25 10 27 11 26 12
REMARK SMILES IDX 5 13 6 14 10 15 7 16 9 17 8 18 11 19 20 20 12 21 19 22 15 23
REMARK SMILES IDX 13 24 18 25 16 26 14 27 17 28
REMARK H PARENT
ROOT
ATOM      1  O   UNL     1     -25.421   4.585  11.637  1.00  0.00    -0.252 OA
ATOM      2  C   UNL     1     -26.150   3.790  11.066  1.00  0.00    +0.314 C 
ATOM      3  O   UNL     1     -26.910   2.866  11.726  1.00  0.00    -0.449 OA
ATOM      4  C   UNL     1     -27.559   1.966  10.799  1.00  0.00    +0.164 C 
ATOM      5  C   UNL     1     -27.629   2.851   9.540  1.00  0.00    +0.079 C 
ATOM      6  C   UNL     1     -26.322   3.624   9.581  1.00  0.00    +0.134 C 
ENDROOT
BRANCH   6   7
ATOM      7  C   UNL     1     -26.380   4.884   8.750  1.00  0.00    -0.034 A 
ATOM      8  C   UNL     1     -27.568   5.634   8.729  1.00  0.00    +0.004 A 
ATOM      9  C   UNL     1     -25.273   5.367   8.035  1.00  0.00    +0.004 A 
ATOM     10  C   UNL     1     -27.651   6.823   8.002  1.00  0.00    +0.000 A 
ATOM     11  C   UNL     1     -25.358   6.556   7.308  1.00  0.00    +0.000 A 
ATOM     12  C   UNL     1     -26.545   7.283   7.291  1.00  0.00    +0.000 A 
ENDBRANCH   6   7
BRANCH   4  13
ATOM     13  C   UNL     1     -26.690   0.719  10.527  1.00  0.00    +0.000 A 
ATOM     14  C   UNL     1     -25.361   0.622  10.977  1.00  0.00    +0.008 A 
ATOM     15  C   UNL     1     -27.216  -0.367   9.801  1.00  0.00    +0.008 A 
ATOM     16  C   UNL     1     -24.588  -0.510  10.704  1.00  0.00    +0.000 A 
ATOM     17  C   UNL     1     -26.443  -1.499   9.530  1.00  0.00    +0.000 A 
ATOM     18  C   UNL     1     -25.128  -1.569   9.981  1.00  0.00    +0.000 A 
ENDBRANCH   4  13
BRANCH   4  19
ATOM     19  C   UNL     1     -28.940   1.566  11.370  1.00  0.00    +0.008 A 
ATOM     20  C   UNL     1     -29.111   1.022  12.692  1.00  0.00    -0.011 A 
ATOM     21  C   UNL     1     -30.084   1.692  10.546  1.00  0.00    +0.009 A 
ATOM     22  C   UNL     1     -28.064   0.788  13.619  1.00  0.00    +0.009 A 
ATOM     23  C   UNL     1     -30.420   0.675  13.128  1.00  0.00    -0.018 A 
ATOM     24  C   UNL     1     -31.354   1.345  10.995  1.00  0.00    +0.001 A 
ATOM     25  C   UNL     1     -28.290   0.261  14.895  1.00  0.00    +0.001 A 
ATOM     26  C   UNL     1     -30.635   0.149  14.412  1.00  0.00    +0.009 A 
ATOM     27  C   UNL     1     -31.518   0.847  12.279  1.00  0.00    +0.009 A 
ATOM     28  C   UNL     1     -29.578  -0.057  15.292  1.00  0.00    +0.001 A 
ENDBRANCH   4  19
TORSDOF 3
ENDMDL
MODEL 3
REMARK VINA RESULT:   -10.859      3.559      7.124
REMARK INTER + INTRA:         -13.455
REMARK INTER:                 -12.274
REMARK INTRA:                  -1.181
REMARK UNBOUND:                -0.691
REMARK SMILES O=C1O[C@@](c2ccccc2)(c2cccc3ccccc23)C[C@H]1c1ccccc1
REMARK SMILES IDX 1 1 2 2 3 3 4 4 21 5 22 6 23 7 24 8 28 9 25 10 27 11 26 12
REMARK SMILES IDX 5 13 6 14 10 15 7 16 9 17 8 18 11 19 20 20 12 21 19 22 15 23
REMARK SMILES IDX 13 24 18 25 16 26 14 27 17 28
REMARK H PARENT
ROOT
ATOM      1  O   UNL     1     -27.996  -0.140   9.538  1.00  0.00    -0.252 OA
ATOM      2  C   UNL     1     -28.609   0.253  10.517  1.00  0.00    +0.314 C 
ATOM      3  O   UNL     1     -29.353  -0.572  11.312  1.00  0.00    -0.449 OA
ATOM      4  C   UNL     1     -30.083   0.183  12.307  1.00  0.00    +0.164 C 
ATOM      5  C   UNL     1     -29.192   1.432  12.431  1.00  0.00    +0.079 C 
ATOM      6  C   UNL     1     -28.720   1.671  11.008  1.00  0.00    +0.134 C 
ENDROOT
BRANCH   6   7
ATOM      7  C   UNL     1     -27.469   2.516  10.957  1.00  0.00    -0.034 A 
ATOM      8  C   UNL     1     -26.856   2.901  12.161  1.00  0.00    +0.004 A 
ATOM      9  C   UNL     1     -26.861   2.890   9.748  1.00  0.00    +0.004 A 
ATOM     10  C   UNL     1     -25.679   3.652  12.157  1.00  0.00    +0.000 A 
ATOM     11  C   UNL     1     -25.684   3.642   9.746  1.00  0.00    +0.000 A 
ATOM     12  C   UNL     1     -25.094   4.023  10.948  1.00  0.00    +0.000 A 
ENDBRANCH   6   7
BRANCH   4  13
ATOM     13  C   UNL     1     -31.486   0.576  11.795  1.00  0.00    +0.000 A 
ATOM     14  C   UNL     1     -31.950   0.196  10.523  1.00  0.00    +0.008 A 
ATOM     15  C   UNL     1     -32.345   1.346  12.602  1.00  0.00    +0.008 A 
ATOM     16  C   UNL     1     -33.218   0.578  10.073  1.00  0.00    +0.000 A 
ATOM     17  C   UNL     1     -33.612   1.726  12.153  1.00  0.00    +0.000 A 
ATOM     18  C   UNL     1     -34.047   1.343  10.888  1.00  0.00    +0.000 A 
ENDBRANCH   4  13
BRANCH   4  19
ATOM     19  C   UNL     1     -30.181  -0.658  13.602  1.00  0.00    +0.008 A 
ATOM     20  C   UNL     1     -30.846  -1.934  13.657  1.00  0.00    -0.011 A 
ATOM     21  C   UNL     1     -29.639  -0.135  14.800  1.00  0.00    +0.009 A 
ATOM     22  C   UNL     1     -31.480  -2.570  12.561  1.00  0.00    +0.009 A 
ATOM     23  C   UNL     1     -30.892  -2.631  14.897  1.00  0.00    -0.018 A 
ATOM     24  C   UNL     1     -29.698  -0.835  16.000  1.00  0.00    +0.001 A 
ATOM     25  C   UNL     1     -32.108  -3.817  12.672  1.00  0.00    +0.001 A 
ATOM     26  C   UNL     1     -31.523  -3.882  14.995  1.00  0.00    +0.009 A 
ATOM     27  C   UNL     1     -30.315  -2.076  16.044  1.00  0.00    +0.009 A 
ATOM     28  C   UNL     1     -32.127  -4.473  13.891  1.00  0.00    +0.001 A 
ENDBRANCH   4  19
TORSDOF 3
ENDMDL
MODEL 4
REMARK VINA RESULT:   -10.748      4.525      8.387
REMARK INTER + INTRA:         -13.324
REMARK INTER:                 -12.326
REMARK INTRA:                  -0.998
REMARK UNBOUND:                -0.691
REMARK SMILES O=C1O[C@@](c2ccccc2)(c2cccc3ccccc23)C[C@H]1c1ccccc1
REMARK SMILES IDX 1 1 2 2 3 3 4 4 21 5 22 6 23 7 24 8 28 9 25 10 27 11 26 12
REMARK SMILES IDX 5 13 6 14 10 15 7 16 9 17 8 18 11 19 20 20 12 21 19 22 15 23
REMARK SMILES IDX 13 24 18 25 16 26 14 27 17 28
REMARK H PARENT
ROOT
ATOM      1  O   UNL     1     -24.533   4.352  11.160  1.00  0.00    -0.252 OA
ATOM      2  C   UNL     1     -25.427   3.579  10.856  1.00  0.00    +0.314 C 
ATOM      3  O   UNL     1     -25.958   2.671  11.728  1.00  0.00    -0.449 OA
ATOM      4  C   UNL     1     -26.893   1.792  11.062  1.00  0.00    +0.164 C 
ATOM      5  C   UNL     1     -27.342   2.686   9.891  1.00  0.00    +0.079 C 
ATOM      6  C   UNL     1     -26.073   3.426   9.506  1.00  0.00    +0.134 C 
ENDROOT
BRANCH   6   7
ATOM      7  C   UNL     1     -26.364   4.692   8.735  1.00  0.00    -0.034 A 
ATOM      8  C   UNL     1     -27.635   5.280   8.841  1.00  0.00    +0.004 A 
ATOM      9  C   UNL     1     -25.393   5.338   7.953  1.00  0.00    +0.004 A 
ATOM     10  C   UNL     1     -27.932   6.469   8.173  1.00  0.00    +0.000 A 
ATOM     11  C   UNL     1     -25.692   6.527   7.285  1.00  0.00    +0.000 A 
ATOM     12  C   UNL     1     -26.960   7.091   7.394  1.00  0.00    +0.000 A 
ENDBRANCH   6   7
BRANCH   4  13
ATOM     13  C   UNL     1     -26.190   0.525  10.527  1.00  0.00    +0.000 A 
ATOM     14  C   UNL     1     -26.856  -0.414   9.719  1.00  0.00    +0.008 A 
ATOM     15  C   UNL     1     -24.843   0.273  10.851  1.00  0.00    +0.008 A 
ATOM     16  C   UNL     1     -26.203  -1.562   9.261  1.00  0.00    +0.000 A 
ATOM     17  C   UNL     1     -24.191  -0.874  10.391  1.00  0.00    +0.000 A 
ATOM     18  C   UNL     1     -24.873  -1.792   9.597  1.00  0.00    +0.000 A 
ENDBRANCH   4  13
BRANCH   4  19
ATOM     19  C   UNL     1     -28.026   1.424  12.049  1.00  0.00    +0.008 A 
ATOM     20  C   UNL     1     -29.413   1.381  11.667  1.00  0.00    -0.011 A 
ATOM     21  C   UNL     1     -27.697   1.164  13.401  1.00  0.00    +0.009 A 
ATOM     22  C   UNL     1     -29.910   1.663  10.369  1.00  0.00    +0.009 A 
ATOM     23  C   UNL     1     -30.385   1.040  12.648  1.00  0.00    -0.018 A 
ATOM     24  C   UNL     1     -28.666   0.833  14.342  1.00  0.00    +0.001 A 
ATOM     25  C   UNL     1     -31.272   1.600  10.053  1.00  0.00    +0.001 A 
ATOM     26  C   UNL     1     -31.749   0.978  12.318  1.00  0.00    +0.009 A 
ATOM     27  C   UNL     1     -29.998   0.766  13.964  1.00  0.00    +0.009 A 
ATOM     28  C   UNL     1     -32.192   1.255  11.028  1.00  0.00    +0.001 A 
ENDBRANCH   4  19
TORSDOF 3
ENDMDL
MODEL 5
REMARK VINA RESULT:   -10.704      2.272      6.382
REMARK INTER + INTRA:         -13.272
REMARK INTER:                 -12.209
REMARK INTRA:                  -1.063
REMARK UNBOUND:                -0.691
REMARK SMILES O=C1O[C@@](c2ccccc2)(c2cccc3ccccc23)C[C@H]1c1ccccc1
REMARK SMILES IDX 1 1 2 2 3 3 4 4 21 5 22 6 23 7 24 8 28 9 25 10 27 11 26 12
REMARK SMILES IDX 5 13 6 14 10 15 7 16 9 17 8 18 11 19 20 20 12 21 19 22 15 23
REMARK SMILES IDX 13 24 18 25 16 26 14 27 17 28
REMARK H PARENT
ROOT
ATOM      1  O   UNL     1     -33.855   5.485   5.718  1.00  0.00    -0.252 OA
ATOM      2  C   UNL     1     -33.777   5.367   6.930  1.00  0.00    +0.314 C 
ATOM      3  O   UNL     1     -34.137   4.229   7.595  1.00  0.00    -0.449 OA
ATOM      4  C   UNL     1     -34.078   4.421   9.027  1.00  0.00    +0.164 C 
ATOM      5  C   UNL     1     -33.033   5.547   9.124  1.00  0.00    +0.079 C 
ATOM      6  C   UNL     1     -33.339   6.416   7.916  1.00  0.00    +0.134 C 
ENDROOT
BRANCH   6   7
ATOM      7  C   UNL     1     -32.164   7.281   7.524  1.00  0.00    -0.034 A 
ATOM      8  C   UNL     1     -32.401   8.486   6.843  1.00  0.00    +0.004 A 
ATOM      9  C   UNL     1     -30.842   6.953   7.861  1.00  0.00    +0.004 A 
ATOM     10  C   UNL     1     -31.345   9.331   6.495  1.00  0.00    +0.000 A 
ATOM     11  C   UNL     1     -29.787   7.798   7.511  1.00  0.00    +0.000 A 
ATOM     12  C   UNL     1     -30.038   8.985   6.828  1.00  0.00    +0.000 A 
ENDBRANCH   6   7
BRANCH   4  13
ATOM     13  C   UNL     1     -35.435   4.902   9.585  1.00  0.00    +0.000 A 
ATOM     14  C   UNL     1     -35.558   5.460  10.870  1.00  0.00    +0.008 A 
ATOM     15  C   UNL     1     -36.603   4.784   8.807  1.00  0.00    +0.008 A 
ATOM     16  C   UNL     1     -36.801   5.873  11.361  1.00  0.00    +0.000 A 
ATOM     17  C   UNL     1     -37.844   5.199   9.297  1.00  0.00    +0.000 A 
ATOM     18  C   UNL     1     -37.942   5.742  10.575  1.00  0.00    +0.000 A 
ENDBRANCH   4  13
BRANCH   4  19
ATOM     19  C   UNL     1     -33.644   3.093   9.693  1.00  0.00    +0.008 A 
ATOM     20  C   UNL     1     -32.264   2.727   9.878  1.00  0.00    -0.011 A 
ATOM     21  C   UNL     1     -34.640   2.172  10.095  1.00  0.00    +0.009 A 
ATOM     22  C   UNL     1     -31.152   3.514   9.487  1.00  0.00    +0.009 A 
ATOM     23  C   UNL     1     -31.962   1.480  10.494  1.00  0.00    -0.018 A 
ATOM     24  C   UNL     1     -34.319   0.958  10.694  1.00  0.00    +0.001 A 
ATOM     25  C   UNL     1     -29.829   3.108   9.698  1.00  0.00    +0.001 A 
ATOM     26  C   UNL     1     -30.630   1.085  10.702  1.00  0.00    +0.009 A 
ATOM     27  C   UNL     1     -32.990   0.621  10.896  1.00  0.00    +0.009 A 
ATOM     28  C   UNL     1     -29.569   1.893  10.308  1.00  0.00    +0.001 A 
ENDBRANCH   4  19
TORSDOF 3
ENDMDL
MODEL 6
REMARK VINA RESULT:   -10.598      2.389      8.483
REMARK INTER + INTRA:         -13.148
REMARK INTER:                 -11.861
REMARK INTRA:                  -1.287
REMARK UNBOUND:                -0.691
REMARK SMILES O=C1O[C@@](c2ccccc2)(c2cccc3ccccc23)C[C@H]1c1ccccc1
REMARK SMILES IDX 1 1 2 2 3 3 4 4 21 5 22 6 23 7 24 8 28 9 25 10 27 11 26 12
REMARK SMILES IDX 5 13 6 14 10 15 7 16 9 17 8 18 11 19 20 20 12 21 19 22 15 23
REMARK SMILES IDX 13 24 18 25 16 26 14 27 17 28
REMARK H PARENT
ROOT
ATOM      1  O   UNL     1     -32.485  -1.063  10.772  1.00  0.00    -0.252 OA
ATOM      2  C   UNL     1     -31.587  -0.384  11.242  1.00  0.00    +0.314 C 
ATOM      3  O   UNL     1     -30.308  -0.840  11.394  1.00  0.00    -0.449 OA
ATOM      4  C   UNL     1     -29.493   0.119  12.107  1.00  0.00    +0.164 C 
ATOM      5  C   UNL     1     -30.234   1.427  11.776  1.00  0.00    +0.079 C 
ATOM      6  C   UNL     1     -31.696   1.016  11.783  1.00  0.00    +0.134 C 
ENDROOT
BRANCH   6   7
ATOM      7  C   UNL     1     -32.564   1.984  11.014  1.00  0.00    -0.034 A 
ATOM      8  C   UNL     1     -33.810   2.354  11.545  1.00  0.00    +0.004 A 
ATOM      9  C   UNL     1     -32.150   2.572   9.808  1.00  0.00    +0.004 A 
ATOM     10  C   UNL     1     -34.626   3.273  10.883  1.00  0.00    +0.000 A 
ATOM     11  C   UNL     1     -32.968   3.491   9.147  1.00  0.00    +0.000 A 
ATOM     12  C   UNL     1     -34.204   3.841   9.683  1.00  0.00    +0.000 A 
ENDBRANCH   6   7
BRANCH   4  13
ATOM     13  C   UNL     1     -29.523  -0.141  13.629  1.00  0.00    +0.000 A 
ATOM     14  C   UNL     1     -29.411   0.901  14.567  1.00  0.00    +0.008 A 
ATOM     15  C   UNL     1     -29.658  -1.454  14.121  1.00  0.00    +0.008 A 
ATOM     16  C   UNL     1     -29.424   0.639  15.940  1.00  0.00    +0.000 A 
ATOM     17  C   UNL     1     -29.672  -1.714  15.494  1.00  0.00    +0.000 A 
ATOM     18  C   UNL     1     -29.553  -0.667  16.403  1.00  0.00    +0.000 A 
ENDBRANCH   4  13
BRANCH   4  19
ATOM     19  C   UNL     1     -28.047   0.053  11.561  1.00  0.00    +0.008 A 
ATOM     20  C   UNL     1     -27.140   1.168  11.616  1.00  0.00    -0.011 A 
ATOM     21  C   UNL     1     -27.607  -1.138  10.934  1.00  0.00    +0.009 A 
ATOM     22  C   UNL     1     -27.443   2.440  12.164  1.00  0.00    +0.009 A 
ATOM     23  C   UNL     1     -25.831   1.015  11.079  1.00  0.00    -0.018 A 
ATOM     24  C   UNL     1     -26.322  -1.262  10.416  1.00  0.00    +0.001 A 
ATOM     25  C   UNL     1     -26.516   3.488  12.195  1.00  0.00    +0.001 A 
ATOM     26  C   UNL     1     -24.909   2.075  11.118  1.00  0.00    +0.009 A 
ATOM     27  C   UNL     1     -25.441  -0.195  10.495  1.00  0.00    +0.009 A 
ATOM     28  C   UNL     1     -25.247   3.304  11.673  1.00  0.00    +0.001 A 
ENDBRANCH   4  19
TORSDOF 3
ENDMDL
MODEL 7
REMARK VINA RESULT:   -10.482      2.618      8.928
REMARK INTER + INTRA:         -13.011
REMARK INTER:                 -11.758
REMARK INTRA:                  -1.254
REMARK UNBOUND:                -0.691
REMARK SMILES O=C1O[C@@](c2ccccc2)(c2cccc3ccccc23)C[C@H]1c1ccccc1
REMARK SMILES IDX 1 1 2 2 3 3 4 4 21 5 22 6 23 7 24 8 28 9 25 10 27 11 26 12
REMARK SMILES IDX 5 13 6 14 10 15 7 16 9 17 8 18 11 19 20 20 12 21 19 22 15 23
REMARK SMILES IDX 13 24 18 25 16 26 14 27 17 28
REMARK H PARENT
ROOT
ATOM      1  O   UNL     1     -31.033  -0.888   8.994  1.00  0.00    -0.252 OA
ATOM      2  C   UNL     1     -30.650  -0.228   9.946  1.00  0.00    +0.314 C 
ATOM      3  O   UNL     1     -29.367  -0.271  10.416  1.00  0.00    -0.449 OA
ATOM      4  C   UNL     1     -29.233   0.496  11.635  1.00  0.00    +0.164 C 
ATOM      5  C   UNL     1     -30.381   1.508  11.465  1.00  0.00    +0.079 C 
ATOM      6  C   UNL     1     -31.476   0.691  10.804  1.00  0.00    +0.134 C 
ENDROOT
BRANCH   6   7
ATOM      7  C   UNL     1     -32.490   1.562  10.100  1.00  0.00    -0.034 A 
ATOM      8  C   UNL     1     -33.805   1.092   9.948  1.00  0.00    +0.004 A 
ATOM      9  C   UNL     1     -32.183   2.850   9.635  1.00  0.00    +0.004 A 
ATOM     10  C   UNL     1     -34.781   1.881   9.335  1.00  0.00    +0.000 A 
ATOM     11  C   UNL     1     -33.160   3.637   9.021  1.00  0.00    +0.000 A 
ATOM     12  C   UNL     1     -34.457   3.153   8.871  1.00  0.00    +0.000 A 
ENDBRANCH   6   7
BRANCH   4  13
ATOM     13  C   UNL     1     -29.476  -0.383  12.881  1.00  0.00    +0.000 A 
ATOM     14  C   UNL     1     -29.820   0.168  14.128  1.00  0.00    +0.008 A 
ATOM     15  C   UNL     1     -29.348  -1.783  12.796  1.00  0.00    +0.008 A 
ATOM     16  C   UNL     1     -30.018  -0.647  15.247  1.00  0.00    +0.000 A 
ATOM     17  C   UNL     1     -29.548  -2.597  13.914  1.00  0.00    +0.000 A 
ATOM     18  C   UNL     1     -29.882  -2.027  15.139  1.00  0.00    +0.000 A 
ENDBRANCH   4  13
BRANCH   4  19
ATOM     19  C   UNL     1     -27.824   1.135  11.672  1.00  0.00    +0.008 A 
ATOM     20  C   UNL     1     -26.643   0.450  11.215  1.00  0.00    -0.011 A 
ATOM     21  C   UNL     1     -27.675   2.430  12.223  1.00  0.00    +0.009 A 
ATOM     22  C   UNL     1     -26.617  -0.864  10.684  1.00  0.00    +0.009 A 
ATOM     23  C   UNL     1     -25.389   1.116  11.297  1.00  0.00    -0.018 A 
ATOM     24  C   UNL     1     -26.436   3.060  12.294  1.00  0.00    +0.001 A 
ATOM     25  C   UNL     1     -25.437  -1.479  10.250  1.00  0.00    +0.001 A 
ATOM     26  C   UNL     1     -24.211   0.489  10.856  1.00  0.00    +0.009 A 
ATOM     27  C   UNL     1     -25.305   2.408  11.827  1.00  0.00    +0.009 A 
ATOM     28  C   UNL     1     -24.233  -0.800  10.334  1.00  0.00    +0.001 A 
ENDBRANCH   4  19
TORSDOF 3
ENDMDL
MODEL 8
REMARK VINA RESULT:   -10.215      4.614      7.931
REMARK INTER + INTRA:         -12.698
REMARK INTER:                 -12.067
REMARK INTRA:                  -0.631
REMARK UNBOUND:                -0.691
REMARK SMILES O=C1O[C@@](c2ccccc2)(c2cccc3ccccc23)C[C@H]1c1ccccc1
REMARK SMILES IDX 1 1 2 2 3 3 4 4 21 5 22 6 23 7 24 8 28 9 25 10 27 11 26 12
REMARK SMILES IDX 5 13 6 14 10 15 7 16 9 17 8 18 11 19 20 20 12 21 19 22 15 23
REMARK SMILES IDX 13 24 18 25 16 26 14 27 17 28
REMARK H PARENT
ROOT
ATOM      1  O   UNL     1     -26.113   3.674  12.163  1.00  0.00    -0.252 OA
ATOM      2  C   UNL     1     -26.667   2.587  12.168  1.00  0.00    +0.314 C 
ATOM      3  O   UNL     1     -28.025   2.441  12.173  1.00  0.00    -0.449 OA
ATOM      4  C   UNL     1     -28.401   1.052  12.326  1.00  0.00    +0.164 C 
ATOM      5  C   UNL     1     -27.153   0.353  11.754  1.00  0.00    +0.079 C 
ATOM      6  C   UNL     1     -26.009   1.235  12.223  1.00  0.00    +0.134 C 
ENDROOT
BRANCH   6   7
ATOM      7  C   UNL     1     -24.763   1.041  11.391  1.00  0.00    -0.034 A 
ATOM      8  C   UNL     1     -23.786   2.050  11.381  1.00  0.00    +0.004 A 
ATOM      9  C   UNL     1     -24.517  -0.134  10.665  1.00  0.00    +0.004 A 
ATOM     10  C   UNL     1     -22.604   1.895  10.654  1.00  0.00    +0.000 A 
ATOM     11  C   UNL     1     -23.335  -0.287   9.937  1.00  0.00    +0.000 A 
ATOM     12  C   UNL     1     -22.381   0.725   9.931  1.00  0.00    +0.000 A 
ENDBRANCH   6   7
BRANCH   4  13
ATOM     13  C   UNL     1     -28.585   0.682  13.814  1.00  0.00    +0.000 A 
ATOM     14  C   UNL     1     -27.786  -0.288  14.447  1.00  0.00    +0.008 A 
ATOM     15  C   UNL     1     -29.582   1.314  14.583  1.00  0.00    +0.008 A 
ATOM     16  C   UNL     1     -27.983  -0.619  15.791  1.00  0.00    +0.000 A 
ATOM     17  C   UNL     1     -29.776   0.983  15.926  1.00  0.00    +0.000 A 
ATOM     18  C   UNL     1     -28.978   0.016  16.529  1.00  0.00    +0.000 A 
ENDBRANCH   4  13
BRANCH   4  19
ATOM     19  C   UNL     1     -29.698   0.792  11.524  1.00  0.00    +0.008 A 
ATOM     20  C   UNL     1     -30.454  -0.427  11.636  1.00  0.00    -0.011 A 
ATOM     21  C   UNL     1     -30.139   1.771  10.602  1.00  0.00    +0.009 A 
ATOM     22  C   UNL     1     -30.119  -1.521  12.474  1.00  0.00    +0.009 A 
ATOM     23  C   UNL     1     -31.631  -0.580  10.851  1.00  0.00    -0.018 A 
ATOM     24  C   UNL     1     -31.293   1.598   9.845  1.00  0.00    +0.001 A 
ATOM     25  C   UNL     1     -30.897  -2.682  12.546  1.00  0.00    +0.001 A 
ATOM     26  C   UNL     1     -32.405  -1.749  10.933  1.00  0.00    +0.009 A 
ATOM     27  C   UNL     1     -32.034   0.434   9.975  1.00  0.00    +0.009 A 
ATOM     28  C   UNL     1     -32.042  -2.795  11.776  1.00  0.00    +0.001 A 
ENDBRANCH   4  19
TORSDOF 3
ENDMDL
MODEL 9
REMARK VINA RESULT:    -9.674      5.790      8.454
REMARK INTER + INTRA:         -12.062
REMARK INTER:                 -11.613
REMARK INTRA:                  -0.450
REMARK UNBOUND:                -0.691
REMARK SMILES O=C1O[C@@](c2ccccc2)(c2cccc3ccccc23)C[C@H]1c1ccccc1
REMARK SMILES IDX 1 1 2 2 3 3 4 4 21 5 22 6 23 7 24 8 28 9 25 10 27 11 26 12
REMARK SMILES IDX 5 13 6 14 10 15 7 16 9 17 8 18 11 19 20 20 12 21 19 22 15 23
REMARK SMILES IDX 13 24 18 25 16 26 14 27 17 28
REMARK H PARENT
ROOT
ATOM      1  O   UNL     1     -26.071   2.301  12.526  1.00  0.00    -0.252 OA
ATOM      2  C   UNL     1     -26.588   1.618  11.657  1.00  0.00    +0.314 C 
ATOM      3  O   UNL     1     -27.425   0.572  11.928  1.00  0.00    -0.449 OA
ATOM      4  C   UNL     1     -27.772  -0.145  10.721  1.00  0.00    +0.164 C 
ATOM      5  C   UNL     1     -27.592   0.963   9.667  1.00  0.00    +0.079 C 
ATOM      6  C   UNL     1     -26.386   1.736  10.171  1.00  0.00    +0.134 C 
ENDROOT
BRANCH   6   7
ATOM      7  C   UNL     1     -26.321   3.131   9.595  1.00  0.00    -0.034 A 
ATOM      8  C   UNL     1     -25.112   3.842   9.660  1.00  0.00    +0.004 A 
ATOM      9  C   UNL     1     -27.413   3.729   8.945  1.00  0.00    +0.004 A 
ATOM     10  C   UNL     1     -25.001   5.119   9.108  1.00  0.00    +0.000 A 
ATOM     11  C   UNL     1     -27.301   5.007   8.394  1.00  0.00    +0.000 A 
ATOM     12  C   UNL     1     -26.097   5.701   8.476  1.00  0.00    +0.000 A 
ENDBRANCH   6   7
BRANCH   4  13
ATOM     13  C   UNL     1     -26.785  -1.302  10.453  1.00  0.00    +0.000 A 
ATOM     14  C   UNL     1     -26.764  -2.464  11.245  1.00  0.00    +0.008 A 
ATOM     15  C   UNL     1     -25.862  -1.215   9.393  1.00  0.00    +0.008 A 
ATOM     16  C   UNL     1     -25.849  -3.491  10.994  1.00  0.00    +0.000 A 
ATOM     17  C   UNL     1     -24.950  -2.243   9.142  1.00  0.00    +0.000 A 
ATOM     18  C   UNL     1     -24.943  -3.380   9.944  1.00  0.00    +0.000 A 
ENDBRANCH   4  13
BRANCH   4  19
ATOM     19  C   UNL     1     -29.222  -0.670  10.848  1.00  0.00    +0.008 A 
ATOM     20  C   UNL     1     -29.733  -1.268  12.053  1.00  0.00    -0.011 A 
ATOM     21  C   UNL     1     -30.073  -0.607   9.719  1.00  0.00    +0.009 A 
ATOM     22  C   UNL     1     -28.996  -1.448  13.250  1.00  0.00    +0.009 A 
ATOM     23  C   UNL     1     -31.079  -1.730  12.072  1.00  0.00    -0.018 A 
ATOM     24  C   UNL     1     -31.385  -1.067   9.762  1.00  0.00    +0.001 A 
ATOM     25  C   UNL     1     -29.548  -2.033  14.396  1.00  0.00    +0.001 A 
ATOM     26  C   UNL     1     -31.623  -2.313  13.229  1.00  0.00    +0.009 A 
ATOM     27  C   UNL     1     -31.883  -1.618  10.933  1.00  0.00    +0.009 A 
ATOM     28  C   UNL     1     -30.864  -2.463  14.385  1.00  0.00    +0.001 A 
ENDBRANCH   4  19
TORSDOF 3
ENDMDL
