MODEL 1
REMARK VINA RESULT:    -7.960      0.000      0.000
REMARK INTER + INTRA:          -8.582
REMARK INTER:                  -8.425
REMARK INTRA:                  -0.157
REMARK UNBOUND:                -0.157
REMARK SMILES CC(=O)[C@@H]1Cc2ccccc2C1=O
REMARK SMILES IDX 1 1 2 2 3 3 4 4 5 5 12 6 6 7 11 8 13 9 7 10 10 11 8 12 9 13
REMARK H PARENT
ROOT
ATOM      1  C   UNL     1     -25.757   6.060   7.239  1.00  0.00    +0.088 C 
ATOM      2  C   UNL     1     -25.771   7.559   7.077  1.00  0.00    +0.140 C 
ATOM      3  O   UNL     1     -24.857   8.240   7.547  1.00  0.00    -0.299 OA
ENDROOT
BRANCH   2   4
ATOM      4  C   UNL     1     -26.894   8.177   6.271  1.00  0.00    +0.132 C 
ATOM      5  C   UNL     1     -26.472   9.472   5.536  1.00  0.00    +0.056 C 
ATOM      6  C   UNL     1     -28.102   8.581   7.083  1.00  0.00    +0.173 C 
ATOM      7  C   UNL     1     -27.584  10.435   5.813  1.00  0.00    -0.036 A 
ATOM      8  C   UNL     1     -28.504   9.933   6.723  1.00  0.00    +0.022 A 
ATOM      9  O   UNL     1     -28.699   7.897   7.897  1.00  0.00    -0.293 OA
ATOM     10  C   UNL     1     -27.745  11.713   5.304  1.00  0.00    +0.004 A 
ATOM     11  C   UNL     1     -29.602  10.652   7.158  1.00  0.00    +0.012 A 
ATOM     12  C   UNL     1     -28.848  12.465   5.724  1.00  0.00    +0.000 A 
ATOM     13  C   UNL     1     -29.771  11.939   6.645  1.00  0.00    +0.001 A 
ENDBRANCH   2   4
TORSDOF 1
ENDMDL
MODEL 2
REMARK VINA RESULT:    -7.749      2.242      4.173
REMARK INTER + INTRA:          -8.359
REMARK INTER:                  -8.338
REMARK INTRA:                  -0.022
REMARK UNBOUND:                -0.157
REMARK SMILES CC(=O)[C@@H]1Cc2ccccc2C1=O
REMARK SMILES IDX 1 1 2 2 3 3 4 4 5 5 12 6 6 7 11 8 13 9 7 10 10 11 8 12 9 13
REMARK H PARENT
ROOT
ATOM      1  C   UNL     1     -31.774   8.660   6.221  1.00  0.00    +0.088 C 
ATOM      2  C   UNL     1     -31.750   9.679   7.332  1.00  0.00    +0.140 C 
ATOM      3  O   UNL     1     -32.727   9.806   8.075  1.00  0.00    -0.299 OA
ENDROOT
BRANCH   2   4
ATOM      4  C   UNL     1     -30.480  10.476   7.540  1.00  0.00    +0.132 C 
ATOM      5  C   UNL     1     -30.457  11.799   6.737  1.00  0.00    +0.056 C 
ATOM      6  C   UNL     1     -29.214   9.763   7.125  1.00  0.00    +0.173 C 
ATOM      7  C   UNL     1     -29.098  11.830   6.110  1.00  0.00    -0.036 A 
ATOM      8  C   UNL     1     -28.397  10.649   6.311  1.00  0.00    +0.022 A 
ATOM      9  O   UNL     1     -28.877   8.633   7.435  1.00  0.00    -0.293 OA
ATOM     10  C   UNL     1     -28.530  12.851   5.365  1.00  0.00    +0.004 A 
ATOM     11  C   UNL     1     -27.131  10.429   5.800  1.00  0.00    +0.012 A 
ATOM     12  C   UNL     1     -27.248  12.658   4.837  1.00  0.00    +0.000 A 
ATOM     13  C   UNL     1     -26.553  11.456   5.052  1.00  0.00    +0.001 A 
ENDBRANCH   2   4
TORSDOF 1
ENDMDL
MODEL 3
REMARK VINA RESULT:    -7.065      1.398      2.365
REMARK INTER + INTRA:          -7.635
REMARK INTER:                  -7.652
REMARK INTRA:                   0.017
REMARK UNBOUND:                -0.157
REMARK SMILES CC(=O)[C@@H]1Cc2ccccc2C1=O
REMARK SMILES IDX 1 1 2 2 3 3 4 4 5 5 12 6 6 7 11 8 13 9 7 10 10 11 8 12 9 13
REMARK H PARENT
ROOT
ATOM      1  C   UNL     1     -27.173   6.367   8.122  1.00  0.00    +0.088 C 
ATOM      2  C   UNL     1     -26.644   7.369   7.128  1.00  0.00    +0.140 C 
ATOM      3  O   UNL     1     -26.134   6.983   6.074  1.00  0.00    -0.299 OA
ENDROOT
BRANCH   2   4
ATOM      4  C   UNL     1     -26.821   8.840   7.438  1.00  0.00    +0.132 C 
ATOM      5  C   UNL     1     -28.300   9.295   7.395  1.00  0.00    +0.056 C 
ATOM      6  C   UNL     1     -26.112   9.773   6.485  1.00  0.00    +0.173 C 
ATOM      7  C   UNL     1     -28.275  10.566   6.605  1.00  0.00    -0.036 A 
ATOM      8  C   UNL     1     -27.025  10.825   6.060  1.00  0.00    +0.022 A 
ATOM      9  O   UNL     1     -24.948   9.710   6.131  1.00  0.00    -0.293 OA
ATOM     10  C   UNL     1     -29.328  11.431   6.355  1.00  0.00    +0.004 A 
ATOM     11  C   UNL     1     -26.763  11.925   5.264  1.00  0.00    +0.012 A 
ATOM     12  C   UNL     1     -29.093  12.555   5.555  1.00  0.00    +0.000 A 
ATOM     13  C   UNL     1     -27.820  12.801   5.013  1.00  0.00    +0.001 A 
ENDBRANCH   2   4
TORSDOF 1
ENDMDL
MODEL 4
REMARK VINA RESULT:    -6.960      2.237      3.532
REMARK INTER + INTRA:          -7.524
REMARK INTER:                  -7.277
REMARK INTRA:                  -0.247
REMARK UNBOUND:                -0.157
REMARK SMILES CC(=O)[C@@H]1Cc2ccccc2C1=O
REMARK SMILES IDX 1 1 2 2 3 3 4 4 5 5 12 6 6 7 11 8 13 9 7 10 10 11 8 12 9 13
REMARK H PARENT
ROOT
ATOM      1  C   UNL     1     -26.806   9.233   4.536  1.00  0.00    +0.088 C 
ATOM      2  C   UNL     1     -26.523   9.981   5.813  1.00  0.00    +0.140 C 
ATOM      3  O   UNL     1     -25.511  10.681   5.908  1.00  0.00    -0.299 OA
ENDROOT
BRANCH   2   4
ATOM      4  C   UNL     1     -27.542   9.896   6.929  1.00  0.00    +0.132 C 
ATOM      5  C   UNL     1     -27.982   8.444   7.239  1.00  0.00    +0.056 C 
ATOM      6  C   UNL     1     -28.834  10.630   6.659  1.00  0.00    +0.173 C 
ATOM      7  C   UNL     1     -29.474   8.520   7.334  1.00  0.00    -0.036 A 
ATOM      8  C   UNL     1     -29.963   9.768   6.974  1.00  0.00    +0.022 A 
ATOM      9  O   UNL     1     -28.954  11.780   6.271  1.00  0.00    -0.293 OA
ATOM     10  C   UNL     1     -30.353   7.511   7.690  1.00  0.00    +0.004 A 
ATOM     11  C   UNL     1     -31.312  10.070   6.953  1.00  0.00    +0.012 A 
ATOM     12  C   UNL     1     -31.725   7.788   7.681  1.00  0.00    +0.000 A 
ATOM     13  C   UNL     1     -32.202   9.058   7.315  1.00  0.00    +0.001 A 
ENDBRANCH   2   4
TORSDOF 1
ENDMDL
MODEL 5
REMARK VINA RESULT:    -6.540      6.321      7.625
REMARK INTER + INTRA:          -7.079
REMARK INTER:                  -6.912
REMARK INTRA:                  -0.167
REMARK UNBOUND:                -0.157
REMARK SMILES CC(=O)[C@@H]1Cc2ccccc2C1=O
REMARK SMILES IDX 1 1 2 2 3 3 4 4 5 5 12 6 6 7 11 8 13 9 7 10 10 11 8 12 9 13
REMARK H PARENT
ROOT
ATOM      1  C   UNL     1     -36.492   3.299   8.208  1.00  0.00    +0.088 C 
ATOM      2  C   UNL     1     -35.114   3.679   7.730  1.00  0.00    +0.140 C 
ATOM      3  O   UNL     1     -34.378   2.826   7.227  1.00  0.00    -0.299 OA
ENDROOT
BRANCH   2   4
ATOM      4  C   UNL     1     -34.702   5.132   7.828  1.00  0.00    +0.132 C 
ATOM      5  C   UNL     1     -34.417   5.776   6.450  1.00  0.00    +0.056 C 
ATOM      6  C   UNL     1     -33.442   5.377   8.626  1.00  0.00    +0.173 C 
ATOM      7  C   UNL     1     -33.128   6.513   6.643  1.00  0.00    -0.036 A 
ATOM      8  C   UNL     1     -32.556   6.260   7.883  1.00  0.00    +0.022 A 
ATOM      9  O   UNL     1     -33.186   4.948   9.737  1.00  0.00    -0.293 OA
ATOM     10  C   UNL     1     -32.480   7.340   5.741  1.00  0.00    +0.004 A 
ATOM     11  C   UNL     1     -31.348   6.804   8.279  1.00  0.00    +0.012 A 
ATOM     12  C   UNL     1     -31.257   7.907   6.115  1.00  0.00    +0.000 A 
ATOM     13  C   UNL     1     -30.694   7.641   7.375  1.00  0.00    +0.001 A 
ENDBRANCH   2   4
TORSDOF 1
ENDMDL
MODEL 6
REMARK VINA RESULT:    -6.471      6.867      8.050
REMARK INTER + INTRA:          -7.006
REMARK INTER:                  -6.839
REMARK INTRA:                  -0.168
REMARK UNBOUND:                -0.157
REMARK SMILES CC(=O)[C@@H]1Cc2ccccc2C1=O
REMARK SMILES IDX 1 1 2 2 3 3 4 4 5 5 12 6 6 7 11 8 13 9 7 10 10 11 8 12 9 13
REMARK H PARENT
ROOT
ATOM      1  C   UNL     1     -35.033   2.466  10.499  1.00  0.00    +0.088 C 
ATOM      2  C   UNL     1     -34.181   2.938   9.348  1.00  0.00    +0.140 C 
ATOM      3  O   UNL     1     -33.342   2.183   8.850  1.00  0.00    -0.299 OA
ENDROOT
BRANCH   2   4
ATOM      4  C   UNL     1     -34.436   4.324   8.795  1.00  0.00    +0.132 C 
ATOM      5  C   UNL     1     -34.882   4.312   7.313  1.00  0.00    +0.056 C 
ATOM      6  C   UNL     1     -33.237   5.242   8.820  1.00  0.00    +0.173 C 
ATOM      7  C   UNL     1     -34.052   5.377   6.666  1.00  0.00    -0.036 A 
ATOM      8  C   UNL     1     -33.090   5.890   7.525  1.00  0.00    +0.022 A 
ATOM      9  O   UNL     1     -32.505   5.462   9.769  1.00  0.00    -0.293 OA
ATOM     10  C   UNL     1     -34.128   5.838   5.363  1.00  0.00    +0.004 A 
ATOM     11  C   UNL     1     -32.183   6.863   7.145  1.00  0.00    +0.012 A 
ATOM     12  C   UNL     1     -33.225   6.824   4.950  1.00  0.00    +0.000 A 
ATOM     13  C   UNL     1     -32.259   7.334   5.834  1.00  0.00    +0.001 A 
ENDBRANCH   2   4
TORSDOF 1
ENDMDL
MODEL 7
REMARK VINA RESULT:    -6.458      2.799      4.585
REMARK INTER + INTRA:          -6.993
REMARK INTER:                  -6.750
REMARK INTRA:                  -0.243
REMARK UNBOUND:                -0.157
REMARK SMILES CC(=O)[C@@H]1Cc2ccccc2C1=O
REMARK SMILES IDX 1 1 2 2 3 3 4 4 5 5 12 6 6 7 11 8 13 9 7 10 10 11 8 12 9 13
REMARK H PARENT
ROOT
ATOM      1  C   UNL     1     -32.703   7.151   5.460  1.00  0.00    +0.088 C 
ATOM      2  C   UNL     1     -32.711   7.252   6.964  1.00  0.00    +0.140 C 
ATOM      3  O   UNL     1     -33.429   6.501   7.630  1.00  0.00    -0.299 OA
ENDROOT
BRANCH   2   4
ATOM      4  C   UNL     1     -31.774   8.246   7.616  1.00  0.00    +0.132 C 
ATOM      5  C   UNL     1     -31.720   9.605   6.877  1.00  0.00    +0.056 C 
ATOM      6  C   UNL     1     -30.332   7.798   7.686  1.00  0.00    +0.173 C 
ATOM      7  C   UNL     1     -30.260   9.920   6.782  1.00  0.00    -0.036 A 
ATOM      8  C   UNL     1     -29.464   8.870   7.221  1.00  0.00    +0.022 A 
ATOM      9  O   UNL     1     -29.918   6.728   8.095  1.00  0.00    -0.293 OA
ATOM     10  C   UNL     1     -29.671  11.074   6.293  1.00  0.00    +0.004 A 
ATOM     11  C   UNL     1     -28.082   8.914   7.201  1.00  0.00    +0.012 A 
ATOM     12  C   UNL     1     -28.274  11.148   6.263  1.00  0.00    +0.000 A 
ATOM     13  C   UNL     1     -27.484  10.077   6.714  1.00  0.00    +0.001 A 
ENDBRANCH   2   4
TORSDOF 1
ENDMDL
MODEL 8
REMARK VINA RESULT:    -6.378      6.551      7.848
REMARK INTER + INTRA:          -6.907
REMARK INTER:                  -6.731
REMARK INTRA:                  -0.176
REMARK UNBOUND:                -0.157
REMARK SMILES CC(=O)[C@@H]1Cc2ccccc2C1=O
REMARK SMILES IDX 1 1 2 2 3 3 4 4 5 5 12 6 6 7 11 8 13 9 7 10 10 11 8 12 9 13
REMARK H PARENT
ROOT
ATOM      1  C   UNL     1     -34.019   5.212  11.678  1.00  0.00    +0.088 C 
ATOM      2  C   UNL     1     -34.049   4.065  10.700  1.00  0.00    +0.140 C 
ATOM      3  O   UNL     1     -34.772   3.089  10.915  1.00  0.00    -0.299 OA
ENDROOT
BRANCH   2   4
ATOM      4  C   UNL     1     -33.224   4.186   9.436  1.00  0.00    +0.132 C 
ATOM      5  C   UNL     1     -32.194   5.339   9.492  1.00  0.00    +0.056 C 
ATOM      6  C   UNL     1     -34.027   4.458   8.185  1.00  0.00    +0.173 C 
ATOM      7  C   UNL     1     -32.346   6.038   8.177  1.00  0.00    -0.036 A 
ATOM      8  C   UNL     1     -33.416   5.549   7.440  1.00  0.00    +0.022 A 
ATOM      9  O   UNL     1     -35.016   3.856   7.806  1.00  0.00    -0.293 OA
ATOM     10  C   UNL     1     -31.588   7.085   7.679  1.00  0.00    +0.004 A 
ATOM     11  C   UNL     1     -33.775   6.058   6.206  1.00  0.00    +0.012 A 
ATOM     12  C   UNL     1     -31.925   7.619   6.431  1.00  0.00    +0.000 A 
ATOM     13  C   UNL     1     -33.011   7.110   5.698  1.00  0.00    +0.001 A 
ENDBRANCH   2   4
TORSDOF 1
ENDMDL
MODEL 9
REMARK VINA RESULT:    -5.954      9.870     10.994
REMARK INTER + INTRA:          -6.459
REMARK INTER:                  -6.217
REMARK INTRA:                  -0.242
REMARK UNBOUND:                -0.157
REMARK SMILES CC(=O)[C@@H]1Cc2ccccc2C1=O
REMARK SMILES IDX 1 1 2 2 3 3 4 4 5 5 12 6 6 7 11 8 13 9 7 10 10 11 8 12 9 13
REMARK H PARENT
ROOT
ATOM      1  C   UNL     1     -33.175   3.108  10.657  1.00  0.00    +0.088 C 
ATOM      2  C   UNL     1     -33.900   2.146   9.751  1.00  0.00    +0.140 C 
ATOM      3  O   UNL     1     -33.430   1.025   9.538  1.00  0.00    -0.299 OA
ENDROOT
BRANCH   2   4
ATOM      4  C   UNL     1     -35.233   2.575   9.178  1.00  0.00    +0.132 C 
ATOM      5  C   UNL     1     -35.250   4.054   8.721  1.00  0.00    +0.056 C 
ATOM      6  C   UNL     1     -36.396   2.464  10.137  1.00  0.00    +0.173 C 
ATOM      7  C   UNL     1     -36.528   4.600   9.277  1.00  0.00    -0.036 A 
ATOM      8  C   UNL     1     -37.170   3.696  10.111  1.00  0.00    +0.022 A 
ATOM      9  O   UNL     1     -36.692   1.497  10.816  1.00  0.00    -0.293 OA
ATOM     10  C   UNL     1     -37.072   5.858   9.075  1.00  0.00    +0.004 A 
ATOM     11  C   UNL     1     -38.353   3.984  10.766  1.00  0.00    +0.012 A 
ATOM     12  C   UNL     1     -38.270   6.178   9.723  1.00  0.00    +0.000 A 
ATOM     13  C   UNL     1     -38.908   5.249  10.563  1.00  0.00    +0.001 A 
ENDBRANCH   2   4
TORSDOF 1
ENDMDL
