REMARK SMILES CC(C)Nc1ncnc2c1cnn2-c1ccccc1
REMARK SMILES IDX 4 1 2 3 1 4 3 5 5 6 10 7 6 8 11 9 9 10 7 11 12 12 13 13 8 14
REMARK SMILES IDX 14 15 15 16 19 17 16 18 18 19 17 20
REMARK H PARENT 4 2
ROOT
ATOM      1  N   UNL     1      -2.741   0.818   0.285  1.00  0.00    -0.367 N 
ATOM      2  H   UNL     1      -2.607   1.708  -0.180  1.00  0.00    +0.162 HD
ENDROOT
BRANCH   1   3
ATOM      3  C   UNL     1      -4.053   0.200   0.096  1.00  0.00    +0.074 C 
ATOM      4  C   UNL     1      -5.012   1.246  -0.478  1.00  0.00    +0.030 C 
ATOM      5  C   UNL     1      -4.588  -0.310   1.434  1.00  0.00    +0.030 C 
ENDBRANCH   1   3
BRANCH   1   6
ATOM      6  C   UNL     1      -1.618  -0.003   0.212  1.00  0.00    +0.140 A 
ATOM      7  C   UNL     1      -0.326   0.519   0.046  1.00  0.00    +0.082 A 
ATOM      8  N   UNL     1      -1.737  -1.347   0.313  1.00  0.00    -0.219 NA
ATOM      9  C   UNL     1       0.259   1.788  -0.078  1.00  0.00    +0.150 A 
ATOM     10  C   UNL     1       0.740  -0.367  -0.017  1.00  0.00    +0.168 A 
ATOM     11  C   UNL     1      -0.632  -2.109   0.243  1.00  0.00    +0.226 A 
ATOM     12  N   UNL     1       1.582   1.743  -0.229  1.00  0.00    -0.174 NA
ATOM     13  N   UNL     1       1.889   0.407  -0.185  1.00  0.00    -0.215 N 
ATOM     14  N   UNL     1       0.636  -1.709   0.075  1.00  0.00    -0.216 NA
BRANCH  13  15
ATOM     15  C   UNL     1       3.253  -0.004  -0.311  1.00  0.00    +0.067 A 
ATOM     16  C   UNL     1       4.250   0.975  -0.475  1.00  0.00    +0.028 A 
ATOM     17  C   UNL     1       3.630  -1.352  -0.276  1.00  0.00    +0.028 A 
ATOM     18  C   UNL     1       5.593   0.609  -0.601  1.00  0.00    +0.002 A 
ATOM     19  C   UNL     1       4.976  -1.712  -0.404  1.00  0.00    +0.002 A 
ATOM     20  C   UNL     1       5.955  -0.734  -0.566  1.00  0.00    +0.000 A 
ENDBRANCH  13  15
ENDBRANCH   1   6
TORSDOF 3
