REMARK SMILES Cc1nc(Nc2ccc(Cl)cc2)c2cnn(-c3ccc(Cl)cc3)c2n1
REMARK SMILES IDX 1 1 2 2 3 3 4 4 13 5 14 6 15 7 16 8 24 9 25 10 5 11 6 13
REMARK SMILES IDX 7 14 12 15 8 16 11 17 9 18 10 19 17 20 18 21 23 22 19 23
REMARK SMILES IDX 22 24 20 25 21 26
REMARK H PARENT 5 12
ROOT
ATOM      1  C   UNL     1      -0.120  -2.472   2.259  1.00  0.00    +0.090 C 
ATOM      2  C   UNL     1      -0.116  -1.337   1.281  1.00  0.00    +0.130 A 
ATOM      3  N   UNL     1       1.087  -0.935   0.824  1.00  0.00    -0.215 NA
ATOM      4  C   UNL     1       1.178   0.068  -0.083  1.00  0.00    +0.145 A 
ATOM      5  C   UNL     1      -0.030   0.643  -0.512  1.00  0.00    +0.082 A 
ATOM      6  C   UNL     1      -0.430   1.659  -1.394  1.00  0.00    +0.150 A 
ATOM      7  N   UNL     1      -1.750   1.819  -1.446  1.00  0.00    -0.174 NA
ATOM      8  N   UNL     1      -2.246   0.886  -0.575  1.00  0.00    -0.215 N 
ATOM      9  C   UNL     1      -1.215   0.151   0.012  1.00  0.00    +0.168 A 
ATOM     10  N   UNL     1      -1.309  -0.846   0.913  1.00  0.00    -0.213 NA
ENDROOT
BRANCH   4  11
ATOM     11  N   UNL     1       2.414   0.515  -0.576  1.00  0.00    -0.340 N 
ATOM     12  H   UNL     1       2.333   1.264  -1.248  1.00  0.00    +0.168 HD
BRANCH  11  13
ATOM     13  C   UNL     1       3.740   0.128  -0.315  1.00  0.00    +0.040 A 
ATOM     14  C   UNL     1       4.103  -0.876   0.589  1.00  0.00    +0.027 A 
ATOM     15  C   UNL     1       4.775   0.785  -1.006  1.00  0.00    +0.027 A 
ATOM     16  C   UNL     1       5.445  -1.216   0.801  1.00  0.00    +0.022 A 
ATOM     17  C   UNL     1       6.118   0.452  -0.800  1.00  0.00    +0.022 A 
ATOM     18  C   UNL     1       6.447  -0.550   0.105  1.00  0.00    +0.041 A 
ATOM     19 Cl   UNL     1       8.096  -0.965   0.364  1.00  0.00    -0.084 Cl
ENDBRANCH  11  13
ENDBRANCH   4  11
BRANCH   8  20
ATOM     20  C   UNL     1      -3.660   0.783  -0.386  1.00  0.00    +0.067 A 
ATOM     21  C   UNL     1      -4.510   1.647  -1.102  1.00  0.00    +0.030 A 
ATOM     22  C   UNL     1      -4.228  -0.151   0.490  1.00  0.00    +0.030 A 
ATOM     23  C   UNL     1      -5.898   1.576  -0.942  1.00  0.00    +0.023 A 
ATOM     24  C   UNL     1      -5.618  -0.219   0.647  1.00  0.00    +0.023 A 
ATOM     25  C   UNL     1      -6.446   0.643  -0.068  1.00  0.00    +0.041 A 
ATOM     26 Cl   UNL     1      -8.152   0.553   0.130  1.00  0.00    -0.084 Cl
ENDBRANCH   8  20
TORSDOF 3
