MODEL 1
REMARK VINA RESULT:    -9.310      0.000      0.000
REMARK INTER + INTRA:         -10.854
REMARK INTER:                 -10.399
REMARK INTRA:                  -0.456
REMARK UNBOUND:                -0.456
REMARK SMILES Cc1ccc(Nc2nc(C)nc3c2cnn3C)cc1
REMARK SMILES IDX 6 1 7 3 16 4 15 5 12 6 14 7 11 8 13 9 9 10 8 11 17 12 10 13
REMARK SMILES IDX 5 14 4 15 18 16 3 17 19 18 2 19 1 20
REMARK H PARENT 6 2
ROOT
ATOM      1  N   UNL     1     -30.640   9.388   7.340  1.00  0.00    -0.340 N 
ATOM      2  H   UNL     1     -30.673   9.445   8.355  1.00  0.00    +0.168 HD
ENDROOT
BRANCH   1   3
ATOM      3  C   UNL     1     -29.336   9.721   6.949  1.00  0.00    +0.145 A 
ATOM      4  N   UNL     1     -26.072   8.439   6.945  1.00  0.00    -0.250 N 
ATOM      5  N   UNL     1     -26.590   7.350   7.558  1.00  0.00    -0.179 NA
ATOM      6  C   UNL     1     -27.004   9.400   6.655  1.00  0.00    +0.163 A 
ATOM      7  C   UNL     1     -27.892   7.643   7.651  1.00  0.00    +0.149 A 
ATOM      8  N   UNL     1     -26.798  10.575   6.038  1.00  0.00    -0.214 NA
ATOM      9  C   UNL     1     -28.209   8.912   7.122  1.00  0.00    +0.082 A 
ATOM     10  C   UNL     1     -27.941  11.269   5.878  1.00  0.00    +0.130 A 
ATOM     11  N   UNL     1     -29.173  10.902   6.298  1.00  0.00    -0.215 NA
ATOM     12  C   UNL     1     -24.661   8.485   6.655  1.00  0.00    +0.176 C 
ATOM     13  C   UNL     1     -27.830  12.605   5.208  1.00  0.00    +0.090 C 
ENDBRANCH   1   3
BRANCH   1  14
ATOM     14  C   UNL     1     -31.453   8.337   6.870  1.00  0.00    +0.040 A 
ATOM     15  C   UNL     1     -31.876   8.369   5.536  1.00  0.00    +0.026 A 
ATOM     16  C   UNL     1     -31.899   7.289   7.681  1.00  0.00    +0.026 A 
ATOM     17  C   UNL     1     -32.700   7.367   5.016  1.00  0.00    +0.005 A 
ATOM     18  C   UNL     1     -32.723   6.284   7.165  1.00  0.00    +0.005 A 
ATOM     19  C   UNL     1     -33.138   6.319   5.830  1.00  0.00    -0.051 A 
ATOM     20  C   UNL     1     -33.992   5.222   5.268  1.00  0.00    +0.044 C 
ENDBRANCH   1  14
TORSDOF 2
ENDMDL
MODEL 2
REMARK VINA RESULT:    -8.534      1.094      2.869
REMARK INTER + INTRA:          -9.987
REMARK INTER:                  -9.582
REMARK INTRA:                  -0.405
REMARK UNBOUND:                -0.456
REMARK SMILES Cc1ccc(Nc2nc(C)nc3c2cnn3C)cc1
REMARK SMILES IDX 6 1 7 3 16 4 15 5 12 6 14 7 11 8 13 9 9 10 8 11 17 12 10 13
REMARK SMILES IDX 5 14 4 15 18 16 3 17 19 18 2 19 1 20
REMARK H PARENT 6 2
ROOT
ATOM      1  N   UNL     1     -30.631   8.623   7.655  1.00  0.00    -0.340 N 
ATOM      2  H   UNL     1     -30.497   8.423   8.643  1.00  0.00    +0.168 HD
ENDROOT
BRANCH   1   3
ATOM      3  C   UNL     1     -29.404   9.083   7.156  1.00  0.00    +0.145 A 
ATOM      4  N   UNL     1     -27.937  11.906   5.683  1.00  0.00    -0.250 N 
ATOM      5  N   UNL     1     -29.159  12.480   5.765  1.00  0.00    -0.179 NA
ATOM      6  C   UNL     1     -27.895  10.632   6.181  1.00  0.00    +0.163 A 
ATOM      7  C   UNL     1     -29.905  11.527   6.337  1.00  0.00    +0.149 A 
ATOM      8  N   UNL     1     -26.827   9.820   6.253  1.00  0.00    -0.214 NA
ATOM      9  C   UNL     1     -29.179  10.347   6.604  1.00  0.00    +0.082 A 
ATOM     10  C   UNL     1     -27.126   8.641   6.833  1.00  0.00    +0.130 A 
ATOM     11  N   UNL     1     -28.341   8.246   7.278  1.00  0.00    -0.215 NA
ATOM     12  C   UNL     1     -26.840  12.653   5.120  1.00  0.00    +0.176 C 
ATOM     13  C   UNL     1     -26.010   7.649   6.958  1.00  0.00    +0.090 C 
ENDBRANCH   1   3
BRANCH   1  14
ATOM     14  C   UNL     1     -31.522   7.698   7.073  1.00  0.00    +0.040 A 
ATOM     15  C   UNL     1     -31.781   7.800   5.701  1.00  0.00    +0.026 A 
ATOM     16  C   UNL     1     -32.197   6.717   7.804  1.00  0.00    +0.026 A 
ATOM     17  C   UNL     1     -32.671   6.926   5.069  1.00  0.00    +0.005 A 
ATOM     18  C   UNL     1     -33.087   5.840   7.176  1.00  0.00    +0.005 A 
ATOM     19  C   UNL     1     -33.339   5.942   5.805  1.00  0.00    -0.051 A 
ATOM     20  C   UNL     1     -34.266   4.980   5.125  1.00  0.00    +0.044 C 
ENDBRANCH   1  14
TORSDOF 2
ENDMDL
MODEL 3
REMARK VINA RESULT:    -8.000      6.342      9.892
REMARK INTER + INTRA:          -9.391
REMARK INTER:                  -9.125
REMARK INTRA:                  -0.266
REMARK UNBOUND:                -0.456
REMARK SMILES Cc1ccc(Nc2nc(C)nc3c2cnn3C)cc1
REMARK SMILES IDX 6 1 7 3 16 4 15 5 12 6 14 7 11 8 13 9 9 10 8 11 17 12 10 13
REMARK SMILES IDX 5 14 4 15 18 16 3 17 19 18 2 19 1 20
REMARK H PARENT 6 2
ROOT
ATOM      1  N   UNL     1     -34.468   4.308   9.271  1.00  0.00    -0.340 N 
ATOM      2  H   UNL     1     -33.950   4.496  10.126  1.00  0.00    +0.168 HD
ENDROOT
BRANCH   1   3
ATOM      3  C   UNL     1     -35.814   4.151   9.630  1.00  0.00    +0.145 A 
ATOM      4  N   UNL     1     -38.022   1.788  10.984  1.00  0.00    -0.250 N 
ATOM      5  N   UNL     1     -36.962   0.949  11.032  1.00  0.00    -0.179 NA
ATOM      6  C   UNL     1     -37.720   3.026  10.484  1.00  0.00    +0.163 A 
ATOM      7  C   UNL     1     -35.963   1.694  10.546  1.00  0.00    +0.149 A 
ATOM      8  N   UNL     1     -38.553   4.069  10.332  1.00  0.00    -0.214 NA
ATOM      9  C   UNL     1     -36.375   2.990  10.171  1.00  0.00    +0.082 A 
ATOM     10  C   UNL     1     -37.921   5.153   9.843  1.00  0.00    +0.130 A 
ATOM     11  N   UNL     1     -36.616   5.238   9.494  1.00  0.00    -0.215 NA
ATOM     12  C   UNL     1     -39.308   1.331  11.450  1.00  0.00    +0.176 C 
ATOM     13  C   UNL     1     -38.756   6.378   9.623  1.00  0.00    +0.090 C 
ENDBRANCH   1   3
BRANCH   1  14
ATOM     14  C   UNL     1     -33.930   5.035   8.189  1.00  0.00    +0.040 A 
ATOM     15  C   UNL     1     -32.835   5.873   8.431  1.00  0.00    +0.026 A 
ATOM     16  C   UNL     1     -34.465   4.999   6.898  1.00  0.00    +0.026 A 
ATOM     17  C   UNL     1     -32.270   6.636   7.404  1.00  0.00    +0.005 A 
ATOM     18  C   UNL     1     -33.903   5.759   5.867  1.00  0.00    +0.005 A 
ATOM     19  C   UNL     1     -32.806   6.591   6.113  1.00  0.00    -0.051 A 
ATOM     20  C   UNL     1     -32.181   7.379   5.001  1.00  0.00    +0.044 C 
ENDBRANCH   1  14
TORSDOF 2
ENDMDL
MODEL 4
REMARK VINA RESULT:    -7.980      7.215      8.751
REMARK INTER + INTRA:          -9.369
REMARK INTER:                  -8.940
REMARK INTRA:                  -0.429
REMARK UNBOUND:                -0.456
REMARK SMILES Cc1ccc(Nc2nc(C)nc3c2cnn3C)cc1
REMARK SMILES IDX 6 1 7 3 16 4 15 5 12 6 14 7 11 8 13 9 9 10 8 11 17 12 10 13
REMARK SMILES IDX 5 14 4 15 18 16 3 17 19 18 2 19 1 20
REMARK H PARENT 6 2
ROOT
ATOM      1  N   UNL     1     -28.283   2.125  11.774  1.00  0.00    -0.340 N 
ATOM      2  H   UNL     1     -27.994   2.156  12.749  1.00  0.00    +0.168 HD
ENDROOT
BRANCH   1   3
ATOM      3  C   UNL     1     -27.157   2.440  10.999  1.00  0.00    +0.145 A 
ATOM      4  N   UNL     1     -23.972   1.222  10.186  1.00  0.00    -0.250 N 
ATOM      5  N   UNL     1     -24.245   0.190  11.018  1.00  0.00    -0.179 NA
ATOM      6  C   UNL     1     -24.990   2.131  10.085  1.00  0.00    +0.163 A 
ATOM      7  C   UNL     1     -25.481   0.468  11.450  1.00  0.00    +0.149 A 
ATOM      8  N   UNL     1     -25.020   3.241   9.329  1.00  0.00    -0.214 NA
ATOM      9  C   UNL     1     -25.991   1.672  10.919  1.00  0.00    +0.082 A 
ATOM     10  C   UNL     1     -26.192   3.895   9.438  1.00  0.00    +0.130 A 
ATOM     11  N   UNL     1     -27.239   3.550  10.222  1.00  0.00    -0.215 NA
ATOM     12  C   UNL     1     -22.702   1.263   9.503  1.00  0.00    +0.176 C 
ATOM     13  C   UNL     1     -26.335   5.158   8.644  1.00  0.00    +0.090 C 
ENDBRANCH   1   3
BRANCH   1  14
ATOM     14  C   UNL     1     -29.231   1.102  11.565  1.00  0.00    +0.040 A 
ATOM     15  C   UNL     1     -30.037   0.715  12.642  1.00  0.00    +0.026 A 
ATOM     16  C   UNL     1     -29.373   0.422  10.352  1.00  0.00    +0.026 A 
ATOM     17  C   UNL     1     -30.982  -0.307  12.504  1.00  0.00    +0.005 A 
ATOM     18  C   UNL     1     -30.317  -0.600  10.209  1.00  0.00    +0.005 A 
ATOM     19  C   UNL     1     -31.123  -0.979  11.287  1.00  0.00    -0.051 A 
ATOM     20  C   UNL     1     -32.159  -2.051  11.124  1.00  0.00    +0.044 C 
ENDBRANCH   1  14
TORSDOF 2
ENDMDL
MODEL 5
REMARK VINA RESULT:    -7.692      7.607      9.567
REMARK INTER + INTRA:          -9.047
REMARK INTER:                  -8.679
REMARK INTRA:                  -0.368
REMARK UNBOUND:                -0.456
REMARK SMILES Cc1ccc(Nc2nc(C)nc3c2cnn3C)cc1
REMARK SMILES IDX 6 1 7 3 16 4 15 5 12 6 14 7 11 8 13 9 9 10 8 11 17 12 10 13
REMARK SMILES IDX 5 14 4 15 18 16 3 17 19 18 2 19 1 20
REMARK H PARENT 6 2
ROOT
ATOM      1  N   UNL     1     -26.237   0.440  12.520  1.00  0.00    -0.340 N 
ATOM      2  H   UNL     1     -25.656  -0.368  12.730  1.00  0.00    +0.168 HD
ENDROOT
BRANCH   1   3
ATOM      3  C   UNL     1     -25.526   1.233  11.608  1.00  0.00    +0.145 A 
ATOM      4  N   UNL     1     -25.912   4.045   9.550  1.00  0.00    -0.250 N 
ATOM      5  N   UNL     1     -27.186   4.098  10.003  1.00  0.00    -0.179 NA
ATOM      6  C   UNL     1     -25.181   3.018  10.084  1.00  0.00    +0.163 A 
ATOM      7  C   UNL     1     -27.249   3.066  10.852  1.00  0.00    +0.149 A 
ATOM      8  N   UNL     1     -23.894   2.723   9.843  1.00  0.00    -0.214 NA
ATOM      9  C   UNL     1     -26.039   2.345  10.932  1.00  0.00    +0.082 A 
ATOM     10  C   UNL     1     -23.474   1.665  10.563  1.00  0.00    +0.130 A 
ATOM     11  N   UNL     1     -24.218   0.924  11.416  1.00  0.00    -0.215 NA
ATOM     12  C   UNL     1     -25.457   5.033   8.603  1.00  0.00    +0.176 C 
ATOM     13  C   UNL     1     -22.051   1.237  10.366  1.00  0.00    +0.090 C 
ENDBRANCH   1   3
BRANCH   1  14
ATOM     14  C   UNL     1     -27.601   0.084  12.493  1.00  0.00    +0.040 A 
ATOM     15  C   UNL     1     -28.022  -0.856  11.544  1.00  0.00    +0.026 A 
ATOM     16  C   UNL     1     -28.561   0.656  13.331  1.00  0.00    +0.026 A 
ATOM     17  C   UNL     1     -29.365  -1.235  11.453  1.00  0.00    +0.005 A 
ATOM     18  C   UNL     1     -29.905   0.280  13.244  1.00  0.00    +0.005 A 
ATOM     19  C   UNL     1     -30.320  -0.663  12.298  1.00  0.00    -0.051 A 
ATOM     20  C   UNL     1     -31.755  -1.093  12.229  1.00  0.00    +0.044 C 
ENDBRANCH   1  14
TORSDOF 2
ENDMDL
MODEL 6
REMARK VINA RESULT:    -7.548      8.688     11.362
REMARK INTER + INTRA:          -8.886
REMARK INTER:                  -8.505
REMARK INTRA:                  -0.380
REMARK UNBOUND:                -0.456
REMARK SMILES Cc1ccc(Nc2nc(C)nc3c2cnn3C)cc1
REMARK SMILES IDX 6 1 7 3 16 4 15 5 12 6 14 7 11 8 13 9 9 10 8 11 17 12 10 13
REMARK SMILES IDX 5 14 4 15 18 16 3 17 19 18 2 19 1 20
REMARK H PARENT 6 2
ROOT
ATOM      1  N   UNL     1     -27.314   2.577  12.024  1.00  0.00    -0.340 N 
ATOM      2  H   UNL     1     -27.726   3.212  11.344  1.00  0.00    +0.168 HD
ENDROOT
BRANCH   1   3
ATOM      3  C   UNL     1     -28.337   1.730  12.471  1.00  0.00    +0.145 A 
ATOM      4  N   UNL     1     -30.626  -0.649  11.290  1.00  0.00    -0.250 N 
ATOM      5  N   UNL     1     -30.106  -0.417  10.063  1.00  0.00    -0.179 NA
ATOM      6  C   UNL     1     -30.041   0.090  12.283  1.00  0.00    +0.163 A 
ATOM      7  C   UNL     1     -29.161   0.499  10.302  1.00  0.00    +0.149 A 
ATOM      8  N   UNL     1     -30.328   0.065  13.595  1.00  0.00    -0.214 NA
ATOM      9  C   UNL     1     -29.084   0.868  11.662  1.00  0.00    +0.082 A 
ATOM     10  C   UNL     1     -29.537   0.894  14.302  1.00  0.00    +0.130 A 
ATOM     11  N   UNL     1     -28.575   1.707  13.808  1.00  0.00    -0.215 NA
ATOM     12  C   UNL     1     -31.688  -1.613  11.438  1.00  0.00    +0.176 C 
ATOM     13  C   UNL     1     -29.775   0.956  15.780  1.00  0.00    +0.090 C 
ENDBRANCH   1   3
BRANCH   1  14
ATOM     14  C   UNL     1     -25.994   2.240  11.660  1.00  0.00    +0.040 A 
ATOM     15  C   UNL     1     -25.091   3.278  11.401  1.00  0.00    +0.026 A 
ATOM     16  C   UNL     1     -25.555   0.923  11.495  1.00  0.00    +0.026 A 
ATOM     17  C   UNL     1     -23.775   3.010  11.015  1.00  0.00    +0.005 A 
ATOM     18  C   UNL     1     -24.239   0.649  11.110  1.00  0.00    +0.005 A 
ATOM     19  C   UNL     1     -23.340   1.690  10.858  1.00  0.00    -0.051 A 
ATOM     20  C   UNL     1     -21.919   1.396  10.479  1.00  0.00    +0.044 C 
ENDBRANCH   1  14
TORSDOF 2
ENDMDL
MODEL 7
REMARK VINA RESULT:    -7.510      7.528     10.622
REMARK INTER + INTRA:          -8.844
REMARK INTER:                  -8.469
REMARK INTRA:                  -0.375
REMARK UNBOUND:                -0.456
REMARK SMILES Cc1ccc(Nc2nc(C)nc3c2cnn3C)cc1
REMARK SMILES IDX 6 1 7 3 16 4 15 5 12 6 14 7 11 8 13 9 9 10 8 11 17 12 10 13
REMARK SMILES IDX 5 14 4 15 18 16 3 17 19 18 2 19 1 20
REMARK H PARENT 6 2
ROOT
ATOM      1  N   UNL     1     -34.383   0.956   9.588  1.00  0.00    -0.340 N 
ATOM      2  H   UNL     1     -35.043   0.183   9.583  1.00  0.00    +0.168 HD
ENDROOT
BRANCH   1   3
ATOM      3  C   UNL     1     -35.087   2.103   9.193  1.00  0.00    +0.145 A 
ATOM      4  N   UNL     1     -38.026   3.881   9.895  1.00  0.00    -0.250 N 
ATOM      5  N   UNL     1     -38.289   2.921  10.811  1.00  0.00    -0.179 NA
ATOM      6  C   UNL     1     -36.847   3.694   9.226  1.00  0.00    +0.163 A 
ATOM      7  C   UNL     1     -37.233   2.106  10.708  1.00  0.00    +0.149 A 
ATOM      8  N   UNL     1     -36.312   4.483   8.280  1.00  0.00    -0.214 NA
ATOM      9  C   UNL     1     -36.309   2.523   9.726  1.00  0.00    +0.082 A 
ATOM     10  C   UNL     1     -35.120   4.024   7.853  1.00  0.00    +0.130 A 
ATOM     11  N   UNL     1     -34.498   2.893   8.259  1.00  0.00    -0.215 NA
ATOM     12  C   UNL     1     -38.957   4.969   9.723  1.00  0.00    +0.176 C 
ATOM     13  C   UNL     1     -34.433   4.822   6.787  1.00  0.00    +0.090 C 
ENDBRANCH   1   3
BRANCH   1  14
ATOM     14  C   UNL     1     -33.456   0.818  10.641  1.00  0.00    +0.040 A 
ATOM     15  C   UNL     1     -33.534   1.711  11.716  1.00  0.00    +0.026 A 
ATOM     16  C   UNL     1     -32.432  -0.134  10.643  1.00  0.00    +0.026 A 
ATOM     17  C   UNL     1     -32.631   1.639  12.781  1.00  0.00    +0.005 A 
ATOM     18  C   UNL     1     -31.526  -0.210  11.706  1.00  0.00    +0.005 A 
ATOM     19  C   UNL     1     -31.612   0.681  12.780  1.00  0.00    -0.051 A 
ATOM     20  C   UNL     1     -30.664   0.577  13.936  1.00  0.00    +0.044 C 
ENDBRANCH   1  14
TORSDOF 2
ENDMDL
MODEL 8
REMARK VINA RESULT:    -7.385      6.719      9.426
REMARK INTER + INTRA:          -8.704
REMARK INTER:                  -8.270
REMARK INTRA:                  -0.434
REMARK UNBOUND:                -0.456
REMARK SMILES Cc1ccc(Nc2nc(C)nc3c2cnn3C)cc1
REMARK SMILES IDX 6 1 7 3 16 4 15 5 12 6 14 7 11 8 13 9 9 10 8 11 17 12 10 13
REMARK SMILES IDX 5 14 4 15 18 16 3 17 19 18 2 19 1 20
REMARK H PARENT 6 2
ROOT
ATOM      1  N   UNL     1     -30.763   1.734   9.942  1.00  0.00    -0.340 N 
ATOM      2  H   UNL     1     -31.010   0.873   9.459  1.00  0.00    +0.168 HD
ENDROOT
BRANCH   1   3
ATOM      3  C   UNL     1     -31.682   2.712   9.535  1.00  0.00    +0.145 A 
ATOM      4  N   UNL     1     -35.114   3.182   8.994  1.00  0.00    -0.250 N 
ATOM      5  N   UNL     1     -35.263   1.887   9.357  1.00  0.00    -0.179 NA
ATOM      6  C   UNL     1     -33.816   3.616   9.028  1.00  0.00    +0.163 A 
ATOM      7  C   UNL     1     -34.011   1.502   9.629  1.00  0.00    +0.149 A 
ATOM      8  N   UNL     1     -33.360   4.846   8.741  1.00  0.00    -0.214 NA
ATOM      9  C   UNL     1     -33.063   2.528   9.426  1.00  0.00    +0.082 A 
ATOM     10  C   UNL     1     -32.027   4.943   8.910  1.00  0.00    +0.130 A 
ATOM     11  N   UNL     1     -31.187   3.952   9.287  1.00  0.00    -0.215 NA
ATOM     12  C   UNL     1     -36.277   3.954   8.633  1.00  0.00    +0.176 C 
ATOM     13  C   UNL     1     -31.405   6.273   8.608  1.00  0.00    +0.090 C 
ENDBRANCH   1   3
BRANCH   1  14
ATOM     14  C   UNL     1     -30.291   1.463  11.242  1.00  0.00    +0.040 A 
ATOM     15  C   UNL     1     -31.181   0.906  12.169  1.00  0.00    +0.026 A 
ATOM     16  C   UNL     1     -28.995   1.766  11.668  1.00  0.00    +0.026 A 
ATOM     17  C   UNL     1     -30.780   0.634  13.480  1.00  0.00    +0.005 A 
ATOM     18  C   UNL     1     -28.589   1.495  12.978  1.00  0.00    +0.005 A 
ATOM     19  C   UNL     1     -29.481   0.935  13.898  1.00  0.00    -0.051 A 
ATOM     20  C   UNL     1     -29.035   0.611  15.293  1.00  0.00    +0.044 C 
ENDBRANCH   1  14
TORSDOF 2
ENDMDL
MODEL 9
REMARK VINA RESULT:    -7.170      6.392      8.426
REMARK INTER + INTRA:          -8.463
REMARK INTER:                  -8.042
REMARK INTRA:                  -0.421
REMARK UNBOUND:                -0.456
REMARK SMILES Cc1ccc(Nc2nc(C)nc3c2cnn3C)cc1
REMARK SMILES IDX 6 1 7 3 16 4 15 5 12 6 14 7 11 8 13 9 9 10 8 11 17 12 10 13
REMARK SMILES IDX 5 14 4 15 18 16 3 17 19 18 2 19 1 20
REMARK H PARENT 6 2
ROOT
ATOM      1  N   UNL     1     -30.522   1.390  10.187  1.00  0.00    -0.340 N 
ATOM      2  H   UNL     1     -30.262   1.319   9.206  1.00  0.00    +0.168 HD
ENDROOT
BRANCH   1   3
ATOM      3  C   UNL     1     -29.337   1.558  10.917  1.00  0.00    +0.145 A 
ATOM      4  N   UNL     1     -26.372   3.428  10.922  1.00  0.00    -0.250 N 
ATOM      5  N   UNL     1     -26.836   4.010   9.792  1.00  0.00    -0.179 NA
ATOM      6  C   UNL     1     -27.223   2.495  11.448  1.00  0.00    +0.163 A 
ATOM      7  C   UNL     1     -28.022   3.417   9.610  1.00  0.00    +0.149 A 
ATOM      8  N   UNL     1     -27.048   1.769  12.565  1.00  0.00    -0.214 NA
ATOM      9  C   UNL     1     -28.311   2.452  10.598  1.00  0.00    +0.082 A 
ATOM     10  C   UNL     1     -28.099   0.966  12.816  1.00  0.00    +0.130 A 
ATOM     11  N   UNL     1     -29.212   0.832  12.058  1.00  0.00    -0.215 NA
ATOM     12  C   UNL     1     -25.093   3.831  11.451  1.00  0.00    +0.176 C 
ATOM     13  C   UNL     1     -28.009   0.100  14.036  1.00  0.00    +0.090 C 
ENDBRANCH   1   3
BRANCH   1  14
ATOM     14  C   UNL     1     -31.746   2.075  10.333  1.00  0.00    +0.040 A 
ATOM     15  C   UNL     1     -32.651   1.619  11.298  1.00  0.00    +0.026 A 
ATOM     16  C   UNL     1     -32.121   3.156   9.530  1.00  0.00    +0.026 A 
ATOM     17  C   UNL     1     -33.890   2.242  11.477  1.00  0.00    +0.005 A 
ATOM     18  C   UNL     1     -33.359   3.784   9.706  1.00  0.00    +0.005 A 
ATOM     19  C   UNL     1     -34.257   3.327  10.675  1.00  0.00    -0.051 A 
ATOM     20  C   UNL     1     -35.568   4.022  10.887  1.00  0.00    +0.044 C 
ENDBRANCH   1  14
TORSDOF 2
ENDMDL
