REMARK SMILES Cc1nc(Nc2ccccc2Cl)c2cnn(-c3ccc(Cl)cc3)c2n1
REMARK SMILES IDX 1 1 2 2 3 3 4 4 13 5 14 6 15 7 16 8 24 9 25 10 5 11 6 13
REMARK SMILES IDX 11 14 7 15 10 16 8 17 9 18 12 19 17 20 18 21 23 22 19 23
REMARK SMILES IDX 22 24 20 25 21 26
REMARK H PARENT 5 12
ROOT
ATOM      1  C   UNL     1      -1.526   3.832   1.188  1.00  0.00    +0.090 C 
ATOM      2  C   UNL     1      -0.834   2.602   0.683  1.00  0.00    +0.130 A 
ATOM      3  N   UNL     1       0.510   2.654   0.595  1.00  0.00    -0.215 NA
ATOM      4  C   UNL     1       1.194   1.583   0.128  1.00  0.00    +0.145 A 
ATOM      5  C   UNL     1       0.461   0.457  -0.266  1.00  0.00    +0.082 A 
ATOM      6  C   UNL     1       0.713  -0.819  -0.793  1.00  0.00    +0.150 A 
ATOM      7  N   UNL     1      -0.394  -1.532  -0.998  1.00  0.00    -0.174 NA
ATOM      8  N   UNL     1      -1.411  -0.712  -0.593  1.00  0.00    -0.215 N 
ATOM      9  C   UNL     1      -0.919   0.514  -0.143  1.00  0.00    +0.168 A 
ATOM     10  N   UNL     1      -1.614   1.570   0.325  1.00  0.00    -0.213 NA
ENDROOT
BRANCH   4  11
ATOM     11  N   UNL     1       2.599   1.726   0.083  1.00  0.00    -0.338 N 
ATOM     12  H   UNL     1       2.763   2.505   0.724  1.00  0.00    +0.168 HD
BRANCH  11  13
ATOM     13  C   UNL     1       3.512   0.677   0.352  1.00  0.00    +0.058 A 
ATOM     14  C   UNL     1       3.756   0.189   1.648  1.00  0.00    +0.064 A 
ATOM     15  C   UNL     1       4.171   0.075  -0.729  1.00  0.00    +0.027 A 
ATOM     16  C   UNL     1       4.638  -0.876   1.851  1.00  0.00    +0.023 A 
ATOM     17  C   UNL     1       5.052  -0.989  -0.525  1.00  0.00    +0.002 A 
ATOM     18  C   UNL     1       5.284  -1.465   0.764  1.00  0.00    +0.002 A 
ATOM     19 Cl   UNL     1       2.996   0.894   3.030  1.00  0.00    -0.082 Cl
ENDBRANCH  11  13
ENDBRANCH   4  11
BRANCH   8  20
ATOM     20  C   UNL     1      -2.762  -1.177  -0.676  1.00  0.00    +0.067 A 
ATOM     21  C   UNL     1      -3.010  -2.469  -1.174  1.00  0.00    +0.030 A 
ATOM     22  C   UNL     1      -3.847  -0.386  -0.277  1.00  0.00    +0.030 A 
ATOM     23  C   UNL     1      -4.317  -2.958  -1.270  1.00  0.00    +0.023 A 
ATOM     24  C   UNL     1      -5.155  -0.879  -0.374  1.00  0.00    +0.023 A 
ATOM     25  C   UNL     1      -5.384  -2.160  -0.869  1.00  0.00    +0.041 A 
ATOM     26 Cl   UNL     1      -6.993  -2.758  -0.986  1.00  0.00    -0.084 Cl
ENDBRANCH   8  20
TORSDOF 3
