MODEL 1
REMARK VINA RESULT:    -8.052      0.000      0.000
REMARK INTER + INTRA:          -9.681
REMARK INTER:                  -9.935
REMARK INTRA:                   0.254
REMARK UNBOUND:                 0.254
REMARK SMILES O=C1c2ccccc2C(=O)N1CCCCBr
REMARK SMILES IDX 14 1 15 2 16 3 13 4 12 5 11 6 2 7 9 8 1 9 3 10 8 11 10 12
REMARK SMILES IDX 4 13 7 14 5 15 6 16
REMARK H PARENT
ROOT
ATOM      1  C   UNL     1     -25.145   6.087   8.418  1.00  0.00    +0.013 C 
ENDROOT
BRANCH   1   2
ATOM      2  C   UNL     1     -25.830   4.778   8.778  1.00  0.00    +0.081 C 
ATOM      3 Br   UNL     1     -24.962   3.919  10.292  1.00  0.00    -0.093 Br
ENDBRANCH   1   2
BRANCH   1   4
ATOM      4  C   UNL     1     -25.702   6.724   7.142  1.00  0.00    +0.023 C 
BRANCH   4   5
ATOM      5  C   UNL     1     -25.257   8.182   7.011  1.00  0.00    +0.129 C 
BRANCH   5   6
ATOM      6  N   UNL     1     -26.387   9.063   6.790  1.00  0.00    -0.274 N 
ATOM      7  C   UNL     1     -27.606   8.906   7.391  1.00  0.00    +0.261 C 
ATOM      8  C   UNL     1     -26.334  10.201   6.033  1.00  0.00    +0.261 C 
ATOM      9  O   UNL     1     -27.979   8.038   8.158  1.00  0.00    -0.269 OA
ATOM     10  C   UNL     1     -28.433  10.027   6.949  1.00  0.00    +0.053 A 
ATOM     11  C   UNL     1     -27.657  10.817   6.120  1.00  0.00    +0.053 A 
ATOM     12  O   UNL     1     -25.404  10.663   5.401  1.00  0.00    -0.269 OA
ATOM     13  C   UNL     1     -29.745  10.343   7.244  1.00  0.00    +0.015 A 
ATOM     14  C   UNL     1     -28.148  11.970   5.540  1.00  0.00    +0.015 A 
ATOM     15  C   UNL     1     -30.266  11.504   6.666  1.00  0.00    +0.001 A 
ATOM     16  C   UNL     1     -29.476  12.311   5.820  1.00  0.00    +0.001 A 
ENDBRANCH   5   6
ENDBRANCH   4   5
ENDBRANCH   1   4
TORSDOF 4
ENDMDL
MODEL 2
REMARK VINA RESULT:    -7.919      0.511      2.226
REMARK INTER + INTRA:          -9.517
REMARK INTER:                  -9.784
REMARK INTRA:                   0.267
REMARK UNBOUND:                 0.254
REMARK SMILES O=C1c2ccccc2C(=O)N1CCCCBr
REMARK SMILES IDX 14 1 15 2 16 3 13 4 12 5 11 6 2 7 9 8 1 9 3 10 8 11 10 12
REMARK SMILES IDX 4 13 7 14 5 15 6 16
REMARK H PARENT
ROOT
ATOM      1  C   UNL     1     -25.496   5.322   7.890  1.00  0.00    +0.013 C 
ENDROOT
BRANCH   1   2
ATOM      2  C   UNL     1     -26.154   4.952   9.210  1.00  0.00    +0.081 C 
ATOM      3 Br   UNL     1     -24.986   3.832  10.292  1.00  0.00    -0.093 Br
ENDBRANCH   1   2
BRANCH   1   4
ATOM      4  C   UNL     1     -26.275   6.384   7.110  1.00  0.00    +0.023 C 
BRANCH   4   5
ATOM      5  C   UNL     1     -25.559   7.736   7.149  1.00  0.00    +0.129 C 
BRANCH   5   6
ATOM      6  N   UNL     1     -26.478   8.829   6.896  1.00  0.00    -0.274 N 
ATOM      7  C   UNL     1     -26.175   9.918   6.124  1.00  0.00    +0.261 C 
ATOM      8  C   UNL     1     -27.780   8.849   7.317  1.00  0.00    +0.261 C 
ATOM      9  O   UNL     1     -25.134  10.192   5.557  1.00  0.00    -0.269 OA
ATOM     10  C   UNL     1     -27.382  10.741   6.077  1.00  0.00    +0.053 A 
ATOM     11  C   UNL     1     -28.362  10.088   6.804  1.00  0.00    +0.053 A 
ATOM     12  O   UNL     1     -28.387   8.029   7.978  1.00  0.00    -0.269 OA
ATOM     13  C   UNL     1     -27.619  11.949   5.451  1.00  0.00    +0.015 A 
ATOM     14  C   UNL     1     -29.633  10.606   6.947  1.00  0.00    +0.015 A 
ATOM     15  C   UNL     1     -28.899  12.496   5.582  1.00  0.00    +0.001 A 
ATOM     16  C   UNL     1     -29.898  11.831   6.324  1.00  0.00    +0.001 A 
ENDBRANCH   5   6
ENDBRANCH   4   5
ENDBRANCH   1   4
TORSDOF 4
ENDMDL
MODEL 3
REMARK VINA RESULT:    -7.851      3.918      5.200
REMARK INTER + INTRA:          -9.434
REMARK INTER:                  -9.189
REMARK INTRA:                  -0.245
REMARK UNBOUND:                 0.254
REMARK SMILES O=C1c2ccccc2C(=O)N1CCCCBr
REMARK SMILES IDX 14 1 15 2 16 3 13 4 12 5 11 6 2 7 9 8 1 9 3 10 8 11 10 12
REMARK SMILES IDX 4 13 7 14 5 15 6 16
REMARK H PARENT
ROOT
ATOM      1  C   UNL     1     -32.535   6.886   7.584  1.00  0.00    +0.013 C 
ENDROOT
BRANCH   1   2
ATOM      2  C   UNL     1     -33.799   6.263   7.012  1.00  0.00    +0.081 C 
ATOM      3 Br   UNL     1     -33.794   6.316   5.067  1.00  0.00    -0.093 Br
ENDBRANCH   1   2
BRANCH   1   4
ATOM      4  C   UNL     1     -32.055   8.104   6.790  1.00  0.00    +0.023 C 
BRANCH   4   5
ATOM      5  C   UNL     1     -31.574   9.218   7.722  1.00  0.00    +0.129 C 
BRANCH   5   6
ATOM      6  N   UNL     1     -30.437   9.922   7.162  1.00  0.00    -0.274 N 
ATOM      7  C   UNL     1     -29.177   9.394   7.081  1.00  0.00    +0.261 C 
ATOM      8  C   UNL     1     -30.514  11.151   6.567  1.00  0.00    +0.261 C 
ATOM      9  O   UNL     1     -28.771   8.312   7.462  1.00  0.00    -0.269 OA
ATOM     10  C   UNL     1     -28.351  10.393   6.405  1.00  0.00    +0.053 A 
ATOM     11  C   UNL     1     -29.168  11.466   6.091  1.00  0.00    +0.053 A 
ATOM     12  O   UNL     1     -31.477  11.878   6.424  1.00  0.00    -0.269 OA
ATOM     13  C   UNL     1     -27.009  10.375   6.081  1.00  0.00    +0.015 A 
ATOM     14  C   UNL     1     -28.687  12.581   5.435  1.00  0.00    +0.015 A 
ATOM     15  C   UNL     1     -26.498  11.495   5.417  1.00  0.00    +0.001 A 
ATOM     16  C   UNL     1     -27.330  12.589   5.097  1.00  0.00    +0.001 A 
ENDBRANCH   5   6
ENDBRANCH   4   5
ENDBRANCH   1   4
TORSDOF 4
ENDMDL
MODEL 4
REMARK VINA RESULT:    -7.825      3.794      5.162
REMARK INTER + INTRA:          -9.401
REMARK INTER:                  -9.176
REMARK INTRA:                  -0.226
REMARK UNBOUND:                 0.254
REMARK SMILES O=C1c2ccccc2C(=O)N1CCCCBr
REMARK SMILES IDX 14 1 15 2 16 3 13 4 12 5 11 6 2 7 9 8 1 9 3 10 8 11 10 12
REMARK SMILES IDX 4 13 7 14 5 15 6 16
REMARK H PARENT
ROOT
ATOM      1  C   UNL     1     -32.082   7.553   5.590  1.00  0.00    +0.013 C 
ENDROOT
BRANCH   1   2
ATOM      2  C   UNL     1     -33.002   6.347   5.484  1.00  0.00    +0.081 C 
ATOM      3 Br   UNL     1     -34.306   6.325   6.929  1.00  0.00    -0.093 Br
ENDBRANCH   1   2
BRANCH   1   4
ATOM      4  C   UNL     1     -32.416   8.460   6.777  1.00  0.00    +0.023 C 
BRANCH   4   5
ATOM      5  C   UNL     1     -31.197   8.666   7.677  1.00  0.00    +0.129 C 
BRANCH   5   6
ATOM      6  N   UNL     1     -30.213   9.525   7.047  1.00  0.00    -0.274 N 
ATOM      7  C   UNL     1     -30.448  10.827   6.697  1.00  0.00    +0.261 C 
ATOM      8  C   UNL     1     -28.913   9.162   6.819  1.00  0.00    +0.261 C 
ATOM      9  O   UNL     1     -31.468  11.480   6.807  1.00  0.00    -0.269 OA
ATOM     10  C   UNL     1     -29.193  11.343   6.154  1.00  0.00    +0.053 A 
ATOM     11  C   UNL     1     -28.256  10.327   6.228  1.00  0.00    +0.053 A 
ATOM     12  O   UNL     1     -28.358   8.105   7.046  1.00  0.00    -0.269 OA
ATOM     13  C   UNL     1     -28.882  12.588   5.645  1.00  0.00    +0.015 A 
ATOM     14  C   UNL     1     -26.956  10.499   5.798  1.00  0.00    +0.015 A 
ATOM     15  C   UNL     1     -27.571  12.787   5.200  1.00  0.00    +0.001 A 
ATOM     16  C   UNL     1     -26.616  11.751   5.275  1.00  0.00    +0.001 A 
ENDBRANCH   5   6
ENDBRANCH   4   5
ENDBRANCH   1   4
TORSDOF 4
ENDMDL
MODEL 5
REMARK VINA RESULT:    -6.980      7.613      8.954
REMARK INTER + INTRA:          -8.358
REMARK INTER:                  -8.011
REMARK INTRA:                  -0.347
REMARK UNBOUND:                 0.254
REMARK SMILES O=C1c2ccccc2C(=O)N1CCCCBr
REMARK SMILES IDX 14 1 15 2 16 3 13 4 12 5 11 6 2 7 9 8 1 9 3 10 8 11 10 12
REMARK SMILES IDX 4 13 7 14 5 15 6 16
REMARK H PARENT
ROOT
ATOM      1  C   UNL     1     -35.988   5.014  11.053  1.00  0.00    +0.013 C 
ENDROOT
BRANCH   1   2
ATOM      2  C   UNL     1     -36.784   6.276  10.757  1.00  0.00    +0.081 C 
ATOM      3 Br   UNL     1     -38.459   5.860   9.859  1.00  0.00    -0.093 Br
ENDBRANCH   1   2
BRANCH   1   4
ATOM      4  C   UNL     1     -35.977   4.025   9.884  1.00  0.00    +0.023 C 
BRANCH   4   5
ATOM      5  C   UNL     1     -34.550   3.591   9.541  1.00  0.00    +0.129 C 
BRANCH   5   6
ATOM      6  N   UNL     1     -33.941   4.487   8.578  1.00  0.00    -0.274 N 
ATOM      7  C   UNL     1     -34.313   4.563   7.263  1.00  0.00    +0.261 C 
ATOM      8  C   UNL     1     -32.995   5.424   8.895  1.00  0.00    +0.261 C 
ATOM      9  O   UNL     1     -35.152   3.918   6.664  1.00  0.00    -0.269 OA
ATOM     10  C   UNL     1     -33.502   5.621   6.663  1.00  0.00    +0.053 A 
ATOM     11  C   UNL     1     -32.698   6.146   7.660  1.00  0.00    +0.053 A 
ATOM     12  O   UNL     1     -32.476   5.660   9.968  1.00  0.00    -0.269 OA
ATOM     13  C   UNL     1     -33.466   6.096   5.367  1.00  0.00    +0.015 A 
ATOM     14  C   UNL     1     -31.813   7.177   7.416  1.00  0.00    +0.015 A 
ATOM     15  C   UNL     1     -32.576   7.139   5.095  1.00  0.00    +0.001 A 
ATOM     16  C   UNL     1     -31.755   7.676   6.110  1.00  0.00    +0.001 A 
ENDBRANCH   5   6
ENDBRANCH   4   5
ENDBRANCH   1   4
TORSDOF 4
ENDMDL
MODEL 6
REMARK VINA RESULT:    -6.850      7.258      8.380
REMARK INTER + INTRA:          -8.198
REMARK INTER:                  -7.791
REMARK INTRA:                  -0.407
REMARK UNBOUND:                 0.254
REMARK SMILES O=C1c2ccccc2C(=O)N1CCCCBr
REMARK SMILES IDX 14 1 15 2 16 3 13 4 12 5 11 6 2 7 9 8 1 9 3 10 8 11 10 12
REMARK SMILES IDX 4 13 7 14 5 15 6 16
REMARK H PARENT
ROOT
ATOM      1  C   UNL     1     -34.168   1.747   9.762  1.00  0.00    +0.013 C 
ENDROOT
BRANCH   1   2
ATOM      2  C   UNL     1     -35.113   1.660  10.951  1.00  0.00    +0.081 C 
ATOM      3 Br   UNL     1     -36.891   2.299  10.488  1.00  0.00    -0.093 Br
ENDBRANCH   1   2
BRANCH   1   4
ATOM      4  C   UNL     1     -33.086   2.817   9.935  1.00  0.00    +0.023 C 
BRANCH   4   5
ATOM      5  C   UNL     1     -33.702   4.212  10.057  1.00  0.00    +0.129 C 
BRANCH   5   6
ATOM      6  N   UNL     1     -33.489   4.992   8.853  1.00  0.00    -0.274 N 
ATOM      7  C   UNL     1     -32.383   5.768   8.632  1.00  0.00    +0.261 C 
ATOM      8  C   UNL     1     -34.319   4.965   7.766  1.00  0.00    +0.261 C 
ATOM      9  O   UNL     1     -31.431   5.974   9.360  1.00  0.00    -0.269 OA
ATOM     10  C   UNL     1     -32.532   6.328   7.290  1.00  0.00    +0.053 A 
ATOM     11  C   UNL     1     -33.713   5.838   6.762  1.00  0.00    +0.053 A 
ATOM     12  O   UNL     1     -35.357   4.353   7.605  1.00  0.00    -0.269 OA
ATOM     13  C   UNL     1     -31.712   7.183   6.581  1.00  0.00    +0.015 A 
ATOM     14  C   UNL     1     -34.142   6.175   5.493  1.00  0.00    +0.015 A 
ATOM     15  C   UNL     1     -32.125   7.542   5.294  1.00  0.00    +0.001 A 
ATOM     16  C   UNL     1     -33.330   7.043   4.754  1.00  0.00    +0.001 A 
ENDBRANCH   5   6
ENDBRANCH   4   5
ENDBRANCH   1   4
TORSDOF 4
ENDMDL
MODEL 7
REMARK VINA RESULT:    -6.801      7.329      8.310
REMARK INTER + INTRA:          -8.138
REMARK INTER:                  -7.773
REMARK INTRA:                  -0.365
REMARK UNBOUND:                 0.254
REMARK SMILES O=C1c2ccccc2C(=O)N1CCCCBr
REMARK SMILES IDX 14 1 15 2 16 3 13 4 12 5 11 6 2 7 9 8 1 9 3 10 8 11 10 12
REMARK SMILES IDX 4 13 7 14 5 15 6 16
REMARK H PARENT
ROOT
ATOM      1  C   UNL     1     -34.319   1.586   9.647  1.00  0.00    +0.013 C 
ENDROOT
BRANCH   1   2
ATOM      2  C   UNL     1     -35.096   1.456  10.948  1.00  0.00    +0.081 C 
ATOM      3 Br   UNL     1     -36.983   1.851  10.686  1.00  0.00    -0.093 Br
ENDBRANCH   1   2
BRANCH   1   4
ATOM      4  C   UNL     1     -33.181   2.609   9.728  1.00  0.00    +0.023 C 
BRANCH   4   5
ATOM      5  C   UNL     1     -33.726   4.033   9.853  1.00  0.00    +0.129 C 
BRANCH   5   6
ATOM      6  N   UNL     1     -33.461   4.807   8.656  1.00  0.00    -0.274 N 
ATOM      7  C   UNL     1     -34.251   4.778   7.538  1.00  0.00    +0.261 C 
ATOM      8  C   UNL     1     -32.451   5.723   8.544  1.00  0.00    +0.261 C 
ATOM      9  O   UNL     1     -35.250   4.121   7.320  1.00  0.00    -0.269 OA
ATOM     10  C   UNL     1     -33.672   5.737   6.598  1.00  0.00    +0.053 A 
ATOM     11  C   UNL     1     -32.574   6.313   7.212  1.00  0.00    +0.053 A 
ATOM     12  O   UNL     1     -31.600   6.033   9.354  1.00  0.00    -0.269 OA
ATOM     13  C   UNL     1     -34.066   6.088   5.322  1.00  0.00    +0.015 A 
ATOM     14  C   UNL     1     -31.808   7.275   6.584  1.00  0.00    +0.015 A 
ATOM     15  C   UNL     1     -33.304   7.058   4.664  1.00  0.00    +0.001 A 
ATOM     16  C   UNL     1     -32.184   7.647   5.289  1.00  0.00    +0.001 A 
ENDBRANCH   5   6
ENDBRANCH   4   5
ENDBRANCH   1   4
TORSDOF 4
ENDMDL
MODEL 8
REMARK VINA RESULT:    -6.688      9.632     11.000
REMARK INTER + INTRA:          -7.998
REMARK INTER:                  -7.713
REMARK INTRA:                  -0.285
REMARK UNBOUND:                 0.254
REMARK SMILES O=C1c2ccccc2C(=O)N1CCCCBr
REMARK SMILES IDX 14 1 15 2 16 3 13 4 12 5 11 6 2 7 9 8 1 9 3 10 8 11 10 12
REMARK SMILES IDX 4 13 7 14 5 15 6 16
REMARK H PARENT
ROOT
ATOM      1  C   UNL     1     -32.497   0.597  11.855  1.00  0.00    +0.013 C 
ENDROOT
BRANCH   1   2
ATOM      2  C   UNL     1     -31.139   0.807  11.204  1.00  0.00    +0.081 C 
ATOM      3 Br   UNL     1     -30.786  -0.548   9.852  1.00  0.00    -0.093 Br
ENDBRANCH   1   2
BRANCH   1   4
ATOM      4  C   UNL     1     -33.432   1.797  11.689  1.00  0.00    +0.023 C 
BRANCH   4   5
ATOM      5  C   UNL     1     -34.125   1.776  10.325  1.00  0.00    +0.129 C 
BRANCH   5   6
ATOM      6  N   UNL     1     -35.212   2.734  10.268  1.00  0.00    -0.274 N 
ATOM      7  C   UNL     1     -35.070   4.024   9.833  1.00  0.00    +0.261 C 
ATOM      8  C   UNL     1     -36.516   2.431  10.550  1.00  0.00    +0.261 C 
ATOM      9  O   UNL     1     -34.067   4.603   9.460  1.00  0.00    -0.269 OA
ATOM     10  C   UNL     1     -36.402   4.624   9.877  1.00  0.00    +0.053 A 
ATOM     11  C   UNL     1     -37.284   3.652  10.314  1.00  0.00    +0.053 A 
ATOM     12  O   UNL     1     -36.999   1.378  10.917  1.00  0.00    -0.269 OA
ATOM     13  C   UNL     1     -36.819   5.902   9.559  1.00  0.00    +0.015 A 
ATOM     14  C   UNL     1     -38.635   3.902  10.457  1.00  0.00    +0.015 A 
ATOM     15  C   UNL     1     -38.183   6.180   9.697  1.00  0.00    +0.001 A 
ATOM     16  C   UNL     1     -39.083   5.190  10.143  1.00  0.00    +0.001 A 
ENDBRANCH   5   6
ENDBRANCH   4   5
ENDBRANCH   1   4
TORSDOF 4
ENDMDL
MODEL 9
REMARK VINA RESULT:    -6.634      8.828     10.571
REMARK INTER + INTRA:          -7.932
REMARK INTER:                  -7.578
REMARK INTRA:                  -0.354
REMARK UNBOUND:                 0.254
REMARK SMILES O=C1c2ccccc2C(=O)N1CCCCBr
REMARK SMILES IDX 14 1 15 2 16 3 13 4 12 5 11 6 2 7 9 8 1 9 3 10 8 11 10 12
REMARK SMILES IDX 4 13 7 14 5 15 6 16
REMARK H PARENT
ROOT
ATOM      1  C   UNL     1     -29.287   1.181  13.840  1.00  0.00    +0.013 C 
ENDROOT
BRANCH   1   2
ATOM      2  C   UNL     1     -29.572  -0.038  12.978  1.00  0.00    +0.081 C 
ATOM      3 Br   UNL     1     -30.464  -1.433  13.999  1.00  0.00    -0.093 Br
ENDBRANCH   1   2
BRANCH   1   4
ATOM      4  C   UNL     1     -28.059   1.969  13.376  1.00  0.00    +0.023 C 
BRANCH   4   5
ATOM      5  C   UNL     1     -27.876   1.868  11.861  1.00  0.00    +0.129 C 
BRANCH   5   6
ATOM      6  N   UNL     1     -26.500   1.576  11.512  1.00  0.00    -0.274 N 
ATOM      7  C   UNL     1     -25.492   2.502  11.539  1.00  0.00    +0.261 C 
ATOM      8  C   UNL     1     -26.035   0.325  11.211  1.00  0.00    +0.261 C 
ATOM      9  O   UNL     1     -25.544   3.686  11.812  1.00  0.00    -0.269 OA
ATOM     10  C   UNL     1     -24.266   1.791  11.181  1.00  0.00    +0.053 A 
ATOM     11  C   UNL     1     -24.597   0.462  10.981  1.00  0.00    +0.053 A 
ATOM     12  O   UNL     1     -26.642  -0.726  11.141  1.00  0.00    -0.269 OA
ATOM     13  C   UNL     1     -22.971   2.250  11.047  1.00  0.00    +0.015 A 
ATOM     14  C   UNL     1     -23.652  -0.483  10.637  1.00  0.00    +0.015 A 
ATOM     15  C   UNL     1     -21.994   1.312  10.696  1.00  0.00    +0.001 A 
ATOM     16  C   UNL     1     -22.331  -0.043  10.492  1.00  0.00    +0.001 A 
ENDBRANCH   5   6
ENDBRANCH   4   5
ENDBRANCH   1   4
TORSDOF 4
ENDMDL
