MODEL 1
REMARK VINA RESULT:   -10.065      0.000      0.000
REMARK INTER + INTRA:         -15.516
REMARK INTER:                 -14.772
REMARK INTRA:                  -0.744
REMARK UNBOUND:                -0.744
REMARK SMILES COc1ccc2nc3cc(Cl)ccc3c(NCCCCCN3CCCCC3)c2c1
REMARK SMILES IDX 17 1 16 2 15 4 3 5 29 6 4 7 28 8 5 9 6 10 14 11 7 12 13 13
REMARK SMILES IDX 8 14 12 15 9 16 10 17 11 18 2 19 1 20 18 21 19 22 20 23
REMARK SMILES IDX 21 24 22 25 23 26 27 27 24 28 26 29 25 30
REMARK H PARENT 16 3
ROOT
ATOM      1  C   UNL     1     -30.990   7.726   6.791  1.00  0.00    +0.113 C 
ENDROOT
BRANCH   1   2
ATOM      2  N   UNL     1     -30.087   8.191   7.863  1.00  0.00    -0.384 N 
ATOM      3  H   UNL     1     -29.944   7.428   8.525  1.00  0.00    +0.160 HD
BRANCH   2   4
ATOM      4  C   UNL     1     -28.797   8.593   7.385  1.00  0.00    +0.053 A 
ATOM      5  C   UNL     1     -26.542   5.630   8.092  1.00  0.00    +0.119 A 
ATOM      6  C   UNL     1     -27.680   6.438   8.057  1.00  0.00    +0.059 A 
ATOM      7  C   UNL     1     -25.368   6.103   7.524  1.00  0.00    +0.048 A 
ATOM      8  C   UNL     1     -27.672   7.724   7.456  1.00  0.00    +0.028 A 
ATOM      9  C   UNL     1     -25.348   7.372   6.935  1.00  0.00    +0.033 A 
ATOM     10  C   UNL     1     -26.471   8.188   6.894  1.00  0.00    +0.073 A 
ATOM     11  C   UNL     1     -28.657   9.877   6.797  1.00  0.00    +0.024 A 
ATOM     12  N   UNL     1     -26.345   9.389   6.312  1.00  0.00    -0.248 NA
ATOM     13  C   UNL     1     -29.705  10.827   6.731  1.00  0.00    +0.014 A 
ATOM     14  C   UNL     1     -27.399  10.217   6.269  1.00  0.00    +0.074 A 
ATOM     15  C   UNL     1     -29.513  12.072   6.138  1.00  0.00    +0.021 A 
ATOM     16  C   UNL     1     -27.225  11.461   5.679  1.00  0.00    +0.049 A 
ATOM     17  C   UNL     1     -28.268  12.381   5.610  1.00  0.00    +0.043 A 
ATOM     18 Cl   UNL     1     -28.011  13.914   4.871  1.00  0.00    -0.084 Cl
BRANCH   5  19
ATOM     19  O   UNL     1     -26.714   4.419   8.702  1.00  0.00    -0.497 OA
ATOM     20  C   UNL     1     -25.753   4.052   9.684  1.00  0.00    +0.278 C 
ENDBRANCH   5  19
ENDBRANCH   2   4
ENDBRANCH   1   2
BRANCH   1  21
ATOM     21  C   UNL     1     -32.142   6.892   7.350  1.00  0.00    +0.021 C 
BRANCH  21  22
ATOM     22  C   UNL     1     -33.258   6.627   6.332  1.00  0.00    +0.003 C 
BRANCH  22  23
ATOM     23  C   UNL     1     -34.217   5.478   6.662  1.00  0.00    +0.016 C 
BRANCH  23  24
ATOM     24  C   UNL     1     -35.043   5.719   7.934  1.00  0.00    +0.084 C 
BRANCH  24  25
ATOM     25  N   UNL     1     -35.272   4.481   8.699  1.00  0.00    -0.303 NA
ATOM     26  C   UNL     1     -34.005   3.879   9.148  1.00  0.00    +0.084 C 
ATOM     27  C   UNL     1     -36.187   4.641   9.842  1.00  0.00    +0.084 C 
ATOM     28  C   UNL     1     -33.322   4.644  10.285  1.00  0.00    +0.016 C 
ATOM     29  C   UNL     1     -35.595   5.431  11.013  1.00  0.00    +0.016 C 
ATOM     30  C   UNL     1     -34.266   4.838  11.466  1.00  0.00    +0.003 C 
ENDBRANCH  24  25
ENDBRANCH  23  24
ENDBRANCH  22  23
ENDBRANCH  21  22
ENDBRANCH   1  21
TORSDOF 8
ENDMDL
MODEL 2
REMARK VINA RESULT:    -9.702      4.570      9.728
REMARK INTER + INTRA:         -14.984
REMARK INTER:                 -14.341
REMARK INTRA:                  -0.642
REMARK UNBOUND:                -0.744
REMARK SMILES COc1ccc2nc3cc(Cl)ccc3c(NCCCCCN3CCCCC3)c2c1
REMARK SMILES IDX 17 1 16 2 15 4 3 5 29 6 4 7 28 8 5 9 6 10 14 11 7 12 13 13
REMARK SMILES IDX 8 14 12 15 9 16 10 17 11 18 2 19 1 20 18 21 19 22 20 23
REMARK SMILES IDX 21 24 22 25 23 26 27 27 24 28 26 29 25 30
REMARK H PARENT 16 3
ROOT
ATOM      1  C   UNL     1     -33.065   5.450   8.499  1.00  0.00    +0.113 C 
ENDROOT
BRANCH   1   2
ATOM      2  N   UNL     1     -33.449   5.256   9.911  1.00  0.00    -0.384 N 
ATOM      3  H   UNL     1     -34.130   5.973  10.167  1.00  0.00    +0.160 HD
BRANCH   2   4
ATOM      4  C   UNL     1     -34.051   3.982  10.166  1.00  0.00    +0.053 A 
ATOM      5  C   UNL     1     -37.706   4.752  10.812  1.00  0.00    +0.119 A 
ATOM      6  C   UNL     1     -36.348   4.943  10.551  1.00  0.00    +0.059 A 
ATOM      7  C   UNL     1     -38.183   3.459  10.962  1.00  0.00    +0.048 A 
ATOM      8  C   UNL     1     -35.444   3.855  10.433  1.00  0.00    +0.028 A 
ATOM      9  C   UNL     1     -37.299   2.379  10.855  1.00  0.00    +0.033 A 
ATOM     10  C   UNL     1     -35.946   2.552  10.598  1.00  0.00    +0.073 A 
ATOM     11  C   UNL     1     -33.237   2.820  10.114  1.00  0.00    +0.024 A 
ATOM     12  N   UNL     1     -35.182   1.453  10.520  1.00  0.00    -0.248 NA
ATOM     13  C   UNL     1     -31.837   2.854   9.908  1.00  0.00    +0.014 A 
ATOM     14  C   UNL     1     -33.867   1.575  10.294  1.00  0.00    +0.074 A 
ATOM     15  C   UNL     1     -31.086   1.681   9.861  1.00  0.00    +0.021 A 
ATOM     16  C   UNL     1     -33.105   0.417  10.241  1.00  0.00    +0.049 A 
ATOM     17  C   UNL     1     -31.730   0.463  10.026  1.00  0.00    +0.043 A 
ATOM     18 Cl   UNL     1     -30.821  -0.997   9.970  1.00  0.00    -0.084 Cl
BRANCH   5  19
ATOM     19  O   UNL     1     -38.443   5.900  10.892  1.00  0.00    -0.497 OA
ATOM     20  C   UNL     1     -38.941   6.431   9.669  1.00  0.00    +0.278 C 
ENDBRANCH   5  19
ENDBRANCH   2   4
ENDBRANCH   1   2
BRANCH   1  21
ATOM     21  C   UNL     1     -34.114   6.261   7.738  1.00  0.00    +0.021 C 
BRANCH  21  22
ATOM     22  C   UNL     1     -33.837   6.364   6.233  1.00  0.00    +0.003 C 
BRANCH  22  23
ATOM     23  C   UNL     1     -32.427   6.812   5.832  1.00  0.00    +0.016 C 
BRANCH  23  24
ATOM     24  C   UNL     1     -32.182   8.314   6.040  1.00  0.00    +0.084 C 
BRANCH  24  25
ATOM     25  N   UNL     1     -31.648   8.618   7.378  1.00  0.00    -0.303 NA
ATOM     26  C   UNL     1     -30.199   8.363   7.455  1.00  0.00    +0.084 C 
ATOM     27  C   UNL     1     -31.945   9.981   7.849  1.00  0.00    +0.084 C 
ATOM     28  C   UNL     1     -29.346   9.391   6.707  1.00  0.00    +0.016 C 
ATOM     29  C   UNL     1     -31.161  11.079   7.125  1.00  0.00    +0.016 C 
ATOM     30  C   UNL     1     -29.661  10.809   7.168  1.00  0.00    +0.003 C 
ENDBRANCH  24  25
ENDBRANCH  23  24
ENDBRANCH  22  23
ENDBRANCH  21  22
ENDBRANCH   1  21
TORSDOF 8
ENDMDL
MODEL 3
REMARK VINA RESULT:    -9.212      2.933      4.758
REMARK INTER + INTRA:         -14.264
REMARK INTER:                 -13.376
REMARK INTRA:                  -0.888
REMARK UNBOUND:                -0.744
REMARK SMILES COc1ccc2nc3cc(Cl)ccc3c(NCCCCCN3CCCCC3)c2c1
REMARK SMILES IDX 17 1 16 2 15 4 3 5 29 6 4 7 28 8 5 9 6 10 14 11 7 12 13 13
REMARK SMILES IDX 8 14 12 15 9 16 10 17 11 18 2 19 1 20 18 21 19 22 20 23
REMARK SMILES IDX 21 24 22 25 23 26 27 27 24 28 26 29 25 30
REMARK H PARENT 16 3
ROOT
ATOM      1  C   UNL     1     -30.763   8.232   6.459  1.00  0.00    +0.113 C 
ENDROOT
BRANCH   1   2
ATOM      2  N   UNL     1     -29.936   8.506   7.651  1.00  0.00    -0.384 N 
ATOM      3  H   UNL     1     -30.274   7.931   8.424  1.00  0.00    +0.160 HD
BRANCH   2   4
ATOM      4  C   UNL     1     -28.549   8.199   7.463  1.00  0.00    +0.053 A 
ATOM      5  C   UNL     1     -27.093  11.286   5.814  1.00  0.00    +0.119 A 
ATOM      6  C   UNL     1     -28.025  10.407   6.369  1.00  0.00    +0.059 A 
ATOM      7  C   UNL     1     -25.762  10.902   5.759  1.00  0.00    +0.048 A 
ATOM      8  C   UNL     1     -27.650   9.138   6.882  1.00  0.00    +0.028 A 
ATOM      9  C   UNL     1     -25.382   9.650   6.256  1.00  0.00    +0.033 A 
ATOM     10  C   UNL     1     -26.296   8.764   6.810  1.00  0.00    +0.073 A 
ATOM     11  C   UNL     1     -28.063   6.940   7.902  1.00  0.00    +0.024 A 
ATOM     12  N   UNL     1     -25.833   7.587   7.250  1.00  0.00    -0.248 NA
ATOM     13  C   UNL     1     -28.890   5.926   8.441  1.00  0.00    +0.014 A 
ATOM     14  C   UNL     1     -26.684   6.693   7.774  1.00  0.00    +0.074 A 
ATOM     15  C   UNL     1     -28.360   4.708   8.861  1.00  0.00    +0.021 A 
ATOM     16  C   UNL     1     -26.171   5.477   8.199  1.00  0.00    +0.049 A 
ATOM     17  C   UNL     1     -26.995   4.492   8.739  1.00  0.00    +0.043 A 
ATOM     18 Cl   UNL     1     -26.318   2.996   9.254  1.00  0.00    -0.084 Cl
BRANCH   5  19
ATOM     19  O   UNL     1     -27.613  12.469   5.370  1.00  0.00    -0.497 OA
ATOM     20  C   UNL     1     -29.026  12.618   5.443  1.00  0.00    +0.278 C 
ENDBRANCH   5  19
ENDBRANCH   2   4
ENDBRANCH   1   2
BRANCH   1  21
ATOM     21  C   UNL     1     -32.000   7.407   6.812  1.00  0.00    +0.021 C 
BRANCH  21  22
ATOM     22  C   UNL     1     -32.727   6.837   5.589  1.00  0.00    +0.003 C 
BRANCH  22  23
ATOM     23  C   UNL     1     -33.888   5.877   5.876  1.00  0.00    +0.016 C 
BRANCH  23  24
ATOM     24  C   UNL     1     -34.488   6.049   7.279  1.00  0.00    +0.084 C 
BRANCH  24  25
ATOM     25  N   UNL     1     -34.971   4.778   7.844  1.00  0.00    -0.303 NA
ATOM     26  C   UNL     1     -33.879   4.015   8.473  1.00  0.00    +0.084 C 
ATOM     27  C   UNL     1     -36.091   4.926   8.789  1.00  0.00    +0.084 C 
ATOM     28  C   UNL     1     -33.393   4.604   9.800  1.00  0.00    +0.016 C 
ATOM     29  C   UNL     1     -35.700   5.546  10.133  1.00  0.00    +0.016 C 
ATOM     30  C   UNL     1     -34.547   4.786  10.779  1.00  0.00    +0.003 C 
ENDBRANCH  24  25
ENDBRANCH  23  24
ENDBRANCH  22  23
ENDBRANCH  21  22
ENDBRANCH   1  21
TORSDOF 8
ENDMDL
MODEL 4
REMARK VINA RESULT:    -9.147      5.416      8.243
REMARK INTER + INTRA:         -14.168
REMARK INTER:                 -13.354
REMARK INTRA:                  -0.814
REMARK UNBOUND:                -0.744
REMARK SMILES COc1ccc2nc3cc(Cl)ccc3c(NCCCCCN3CCCCC3)c2c1
REMARK SMILES IDX 17 1 16 2 15 4 3 5 29 6 4 7 28 8 5 9 6 10 14 11 7 12 13 13
REMARK SMILES IDX 8 14 12 15 9 16 10 17 11 18 2 19 1 20 18 21 19 22 20 23
REMARK SMILES IDX 21 24 22 25 23 26 27 27 24 28 26 29 25 30
REMARK H PARENT 16 3
ROOT
ATOM      1  C   UNL     1     -31.204   2.557   9.874  1.00  0.00    +0.113 C 
ENDROOT
BRANCH   1   2
ATOM      2  N   UNL     1     -30.179   1.496   9.934  1.00  0.00    -0.384 N 
ATOM      3  H   UNL     1     -29.673   1.477   9.048  1.00  0.00    +0.160 HD
BRANCH   2   4
ATOM      4  C   UNL     1     -29.214   1.697  10.975  1.00  0.00    +0.053 A 
ATOM      5  C   UNL     1     -26.645   4.041   9.469  1.00  0.00    +0.119 A 
ATOM      6  C   UNL     1     -27.763   3.213   9.582  1.00  0.00    +0.059 A 
ATOM      7  C   UNL     1     -25.828   4.217  10.576  1.00  0.00    +0.048 A 
ATOM      8  C   UNL     1     -28.089   2.550  10.794  1.00  0.00    +0.028 A 
ATOM      9  C   UNL     1     -26.137   3.563  11.773  1.00  0.00    +0.033 A 
ATOM     10  C   UNL     1     -27.244   2.735  11.902  1.00  0.00    +0.073 A 
ATOM     11  C   UNL     1     -29.414   1.053  12.224  1.00  0.00    +0.024 A 
ATOM     12  N   UNL     1     -27.448   2.149  13.090  1.00  0.00    -0.248 NA
ATOM     13  C   UNL     1     -30.472   0.148  12.478  1.00  0.00    +0.014 A 
ATOM     14  C   UNL     1     -28.493   1.326  13.252  1.00  0.00    +0.074 A 
ATOM     15  C   UNL     1     -30.624  -0.454  13.725  1.00  0.00    +0.021 A 
ATOM     16  C   UNL     1     -28.660   0.721  14.489  1.00  0.00    +0.049 A 
ATOM     17  C   UNL     1     -29.713  -0.159  14.729  1.00  0.00    +0.043 A 
ATOM     18 Cl   UNL     1     -29.883  -0.889  16.278  1.00  0.00    -0.084 Cl
BRANCH   5  19
ATOM     19  O   UNL     1     -26.472   4.608   8.237  1.00  0.00    -0.497 OA
ATOM     20  C   UNL     1     -26.119   5.986   8.208  1.00  0.00    +0.278 C 
ENDBRANCH   5  19
ENDBRANCH   2   4
ENDBRANCH   1   2
BRANCH   1  21
ATOM     21  C   UNL     1     -32.604   2.000  10.135  1.00  0.00    +0.021 C 
BRANCH  21  22
ATOM     22  C   UNL     1     -33.392   2.791  11.185  1.00  0.00    +0.003 C 
BRANCH  22  23
ATOM     23  C   UNL     1     -33.669   4.262  10.859  1.00  0.00    +0.016 C 
BRANCH  23  24
ATOM     24  C   UNL     1     -35.147   4.652  11.006  1.00  0.00    +0.084 C 
BRANCH  24  25
ATOM     25  N   UNL     1     -35.942   4.307   9.816  1.00  0.00    -0.303 NA
ATOM     26  C   UNL     1     -36.996   3.327  10.133  1.00  0.00    +0.084 C 
ATOM     27  C   UNL     1     -36.527   5.468   9.125  1.00  0.00    +0.084 C 
ATOM     28  C   UNL     1     -38.161   3.906  10.940  1.00  0.00    +0.016 C 
ATOM     29  C   UNL     1     -37.679   6.135   9.882  1.00  0.00    +0.016 C 
ATOM     30  C   UNL     1     -38.760   5.125  10.247  1.00  0.00    +0.003 C 
ENDBRANCH  24  25
ENDBRANCH  23  24
ENDBRANCH  22  23
ENDBRANCH  21  22
ENDBRANCH   1  21
TORSDOF 8
ENDMDL
MODEL 5
REMARK VINA RESULT:    -9.098      5.099      7.952
REMARK INTER + INTRA:         -14.096
REMARK INTER:                 -13.083
REMARK INTRA:                  -1.013
REMARK UNBOUND:                -0.744
REMARK SMILES COc1ccc2nc3cc(Cl)ccc3c(NCCCCCN3CCCCC3)c2c1
REMARK SMILES IDX 17 1 16 2 15 4 3 5 29 6 4 7 28 8 5 9 6 10 14 11 7 12 13 13
REMARK SMILES IDX 8 14 12 15 9 16 10 17 11 18 2 19 1 20 18 21 19 22 20 23
REMARK SMILES IDX 21 24 22 25 23 26 27 27 24 28 26 29 25 30
REMARK H PARENT 16 3
ROOT
ATOM      1  C   UNL     1     -30.941   3.122   9.777  1.00  0.00    +0.113 C 
ENDROOT
BRANCH   1   2
ATOM      2  N   UNL     1     -29.948   2.029   9.732  1.00  0.00    -0.384 N 
ATOM      3  H   UNL     1     -29.454   2.073   8.840  1.00  0.00    +0.160 HD
BRANCH   2   4
ATOM      4  C   UNL     1     -28.966   2.112  10.771  1.00  0.00    +0.053 A 
ATOM      5  C   UNL     1     -26.156   4.175   9.283  1.00  0.00    +0.119 A 
ATOM      6  C   UNL     1     -27.358   3.473   9.390  1.00  0.00    +0.059 A 
ATOM      7  C   UNL     1     -25.323   4.247  10.389  1.00  0.00    +0.048 A 
ATOM      8  C   UNL     1     -27.753   2.837  10.596  1.00  0.00    +0.028 A 
ATOM      9  C   UNL     1     -25.700   3.618  11.581  1.00  0.00    +0.033 A 
ATOM     10  C   UNL     1     -26.891   2.916  11.704  1.00  0.00    +0.073 A 
ATOM     11  C   UNL     1     -29.233   1.480  12.015  1.00  0.00    +0.024 A 
ATOM     12  N   UNL     1     -27.157   2.344  12.886  1.00  0.00    -0.248 NA
ATOM     13  C   UNL     1     -30.384   0.695  12.262  1.00  0.00    +0.014 A 
ATOM     14  C   UNL     1     -28.286   1.639  13.042  1.00  0.00    +0.074 A 
ATOM     15  C   UNL     1     -30.599   0.100  13.503  1.00  0.00    +0.021 A 
ATOM     16  C   UNL     1     -28.516   1.043  14.274  1.00  0.00    +0.049 A 
ATOM     17  C   UNL     1     -29.659   0.282  14.508  1.00  0.00    +0.043 A 
ATOM     18 Cl   UNL     1     -29.906  -0.442  16.049  1.00  0.00    -0.084 Cl
BRANCH   5  19
ATOM     19  O   UNL     1     -25.924   4.732   8.057  1.00  0.00    -0.497 OA
ATOM     20  C   UNL     1     -25.554   6.106   8.035  1.00  0.00    +0.278 C 
ENDBRANCH   5  19
ENDBRANCH   2   4
ENDBRANCH   1   2
BRANCH   1  21
ATOM     21  C   UNL     1     -32.366   2.592   9.612  1.00  0.00    +0.021 C 
BRANCH  21  22
ATOM     22  C   UNL     1     -33.272   2.884  10.814  1.00  0.00    +0.003 C 
BRANCH  22  23
ATOM     23  C   UNL     1     -34.128   4.152  10.725  1.00  0.00    +0.016 C 
BRANCH  23  24
ATOM     24  C   UNL     1     -33.829   5.004   9.483  1.00  0.00    +0.084 C 
BRANCH  24  25
ATOM     25  N   UNL     1     -35.029   5.243   8.662  1.00  0.00    -0.303 NA
ATOM     26  C   UNL     1     -34.798   6.296   7.658  1.00  0.00    +0.084 C 
ATOM     27  C   UNL     1     -35.563   4.035   8.011  1.00  0.00    +0.084 C 
ATOM     28  C   UNL     1     -33.896   5.863   6.499  1.00  0.00    +0.016 C 
ATOM     29  C   UNL     1     -34.699   3.509   6.861  1.00  0.00    +0.016 C 
ATOM     30  C   UNL     1     -34.424   4.598   5.831  1.00  0.00    +0.003 C 
ENDBRANCH  24  25
ENDBRANCH  23  24
ENDBRANCH  22  23
ENDBRANCH  21  22
ENDBRANCH   1  21
TORSDOF 8
ENDMDL
MODEL 6
REMARK VINA RESULT:    -8.867      4.820      8.312
REMARK INTER + INTRA:         -13.759
REMARK INTER:                 -13.104
REMARK INTRA:                  -0.655
REMARK UNBOUND:                -0.744
REMARK SMILES COc1ccc2nc3cc(Cl)ccc3c(NCCCCCN3CCCCC3)c2c1
REMARK SMILES IDX 17 1 16 2 15 4 3 5 29 6 4 7 28 8 5 9 6 10 14 11 7 12 13 13
REMARK SMILES IDX 8 14 12 15 9 16 10 17 11 18 2 19 1 20 18 21 19 22 20 23
REMARK SMILES IDX 21 24 22 25 23 26 27 27 24 28 26 29 25 30
REMARK H PARENT 16 3
ROOT
ATOM      1  C   UNL     1     -30.864   3.434   9.808  1.00  0.00    +0.113 C 
ENDROOT
BRANCH   1   2
ATOM      2  N   UNL     1     -29.819   2.422   9.551  1.00  0.00    -0.384 N 
ATOM      3  H   UNL     1     -29.362   2.640   8.664  1.00  0.00    +0.160 HD
BRANCH   2   4
ATOM      4  C   UNL     1     -28.803   2.386  10.560  1.00  0.00    +0.053 A 
ATOM      5  C   UNL     1     -25.899   4.318   9.075  1.00  0.00    +0.119 A 
ATOM      6  C   UNL     1     -27.145   3.698   9.190  1.00  0.00    +0.059 A 
ATOM      7  C   UNL     1     -25.031   4.279  10.156  1.00  0.00    +0.048 A 
ATOM      8  C   UNL     1     -27.548   3.034  10.378  1.00  0.00    +0.028 A 
ATOM      9  C   UNL     1     -25.416   3.622  11.329  1.00  0.00    +0.033 A 
ATOM     10  C   UNL     1     -26.650   2.999  11.459  1.00  0.00    +0.073 A 
ATOM     11  C   UNL     1     -29.078   1.716  11.781  1.00  0.00    +0.024 A 
ATOM     12  N   UNL     1     -26.920   2.391  12.623  1.00  0.00    -0.248 NA
ATOM     13  C   UNL     1     -30.274   1.002  12.030  1.00  0.00    +0.014 A 
ATOM     14  C   UNL     1     -28.092   1.760  12.784  1.00  0.00    +0.074 A 
ATOM     15  C   UNL     1     -30.493   0.365  13.249  1.00  0.00    +0.021 A 
ATOM     16  C   UNL     1     -28.327   1.123  13.993  1.00  0.00    +0.049 A 
ATOM     17  C   UNL     1     -29.514   0.433  14.230  1.00  0.00    +0.043 A 
ATOM     18 Cl   UNL     1     -29.766  -0.344  15.744  1.00  0.00    -0.084 Cl
BRANCH   5  19
ATOM     19  O   UNL     1     -25.665   4.916   7.869  1.00  0.00    -0.497 OA
ATOM     20  C   UNL     1     -25.470   6.325   7.878  1.00  0.00    +0.278 C 
ENDBRANCH   5  19
ENDBRANCH   2   4
ENDBRANCH   1   2
BRANCH   1  21
ATOM     21  C   UNL     1     -30.718   4.639   8.878  1.00  0.00    +0.021 C 
BRANCH  21  22
ATOM     22  C   UNL     1     -31.922   5.588   8.912  1.00  0.00    +0.003 C 
BRANCH  22  23
ATOM     23  C   UNL     1     -32.046   6.566   7.738  1.00  0.00    +0.016 C 
BRANCH  23  24
ATOM     24  C   UNL     1     -31.200   7.836   7.909  1.00  0.00    +0.084 C 
BRANCH  24  25
ATOM     25  N   UNL     1     -30.846   8.456   6.621  1.00  0.00    -0.303 NA
ATOM     26  C   UNL     1     -31.599   9.701   6.393  1.00  0.00    +0.084 C 
ATOM     27  C   UNL     1     -29.404   8.699   6.446  1.00  0.00    +0.084 C 
ATOM     28  C   UNL     1     -31.139  10.874   7.264  1.00  0.00    +0.016 C 
ATOM     29  C   UNL     1     -28.851   9.835   7.312  1.00  0.00    +0.016 C 
ATOM     30  C   UNL     1     -29.643  11.121   7.111  1.00  0.00    +0.003 C 
ENDBRANCH  24  25
ENDBRANCH  23  24
ENDBRANCH  22  23
ENDBRANCH  21  22
ENDBRANCH   1  21
TORSDOF 8
ENDMDL
MODEL 7
REMARK VINA RESULT:    -8.679      4.540      9.042
REMARK INTER + INTRA:         -13.482
REMARK INTER:                 -12.918
REMARK INTRA:                  -0.564
REMARK UNBOUND:                -0.744
REMARK SMILES COc1ccc2nc3cc(Cl)ccc3c(NCCCCCN3CCCCC3)c2c1
REMARK SMILES IDX 17 1 16 2 15 4 3 5 29 6 4 7 28 8 5 9 6 10 14 11 7 12 13 13
REMARK SMILES IDX 8 14 12 15 9 16 10 17 11 18 2 19 1 20 18 21 19 22 20 23
REMARK SMILES IDX 21 24 22 25 23 26 27 27 24 28 26 29 25 30
REMARK H PARENT 16 3
ROOT
ATOM      1  C   UNL     1     -27.096   4.355   8.511  1.00  0.00    +0.113 C 
ENDROOT
BRANCH   1   2
ATOM      2  N   UNL     1     -27.566   3.989   9.862  1.00  0.00    -0.384 N 
ATOM      3  H   UNL     1     -28.472   4.429  10.025  1.00  0.00    +0.160 HD
BRANCH   2   4
ATOM      4  C   UNL     1     -27.736   2.577  10.041  1.00  0.00    +0.053 A 
ATOM      5  C   UNL     1     -24.212   1.186  10.155  1.00  0.00    +0.119 A 
ATOM      6  C   UNL     1     -25.264   2.096  10.030  1.00  0.00    +0.059 A 
ATOM      7  C   UNL     1     -24.507  -0.145  10.406  1.00  0.00    +0.048 A 
ATOM      8  C   UNL     1     -26.621   1.700  10.155  1.00  0.00    +0.028 A 
ATOM      9  C   UNL     1     -25.842  -0.548  10.525  1.00  0.00    +0.033 A 
ATOM     10  C   UNL     1     -26.898   0.344  10.401  1.00  0.00    +0.073 A 
ATOM     11  C   UNL     1     -29.053   2.057  10.142  1.00  0.00    +0.024 A 
ATOM     12  N   UNL     1     -28.141  -0.143  10.525  1.00  0.00    -0.248 NA
ATOM     13  C   UNL     1     -30.220   2.843   9.989  1.00  0.00    +0.014 A 
ATOM     14  C   UNL     1     -29.191   0.679  10.392  1.00  0.00    +0.074 A 
ATOM     15  C   UNL     1     -31.489   2.280  10.102  1.00  0.00    +0.021 A 
ATOM     16  C   UNL     1     -30.462   0.135  10.505  1.00  0.00    +0.049 A 
ATOM     17  C   UNL     1     -31.602   0.923  10.364  1.00  0.00    +0.043 A 
ATOM     18 Cl   UNL     1     -33.161   0.208  10.509  1.00  0.00    -0.084 Cl
BRANCH   5  19
ATOM     19  O   UNL     1     -22.965   1.726  10.012  1.00  0.00    -0.497 OA
ATOM     20  C   UNL     1     -21.906   1.093  10.720  1.00  0.00    +0.278 C 
ENDBRANCH   5  19
ENDBRANCH   2   4
ENDBRANCH   1   2
BRANCH   1  21
ATOM     21  C   UNL     1     -26.761   5.843   8.418  1.00  0.00    +0.021 C 
BRANCH  21  22
ATOM     22  C   UNL     1     -25.323   6.121   7.965  1.00  0.00    +0.003 C 
BRANCH  22  23
ATOM     23  C   UNL     1     -25.161   7.016   6.731  1.00  0.00    +0.016 C 
BRANCH  23  24
ATOM     24  C   UNL     1     -25.916   8.349   6.842  1.00  0.00    +0.084 C 
BRANCH  24  25
ATOM     25  N   UNL     1     -27.030   8.447   5.883  1.00  0.00    -0.303 NA
ATOM     26  C   UNL     1     -28.322   8.624   6.569  1.00  0.00    +0.084 C 
ATOM     27  C   UNL     1     -26.854   9.493   4.862  1.00  0.00    +0.084 C 
ATOM     28  C   UNL     1     -28.515  10.015   7.180  1.00  0.00    +0.016 C 
ATOM     29  C   UNL     1     -26.994  10.921   5.396  1.00  0.00    +0.016 C 
ATOM     30  C   UNL     1     -28.312  11.109   6.138  1.00  0.00    +0.003 C 
ENDBRANCH  24  25
ENDBRANCH  23  24
ENDBRANCH  22  23
ENDBRANCH  21  22
ENDBRANCH   1  21
TORSDOF 8
ENDMDL
MODEL 8
REMARK VINA RESULT:    -8.438      4.688      7.507
REMARK INTER + INTRA:         -13.128
REMARK INTER:                 -12.472
REMARK INTRA:                  -0.656
REMARK UNBOUND:                -0.744
REMARK SMILES COc1ccc2nc3cc(Cl)ccc3c(NCCCCCN3CCCCC3)c2c1
REMARK SMILES IDX 17 1 16 2 15 4 3 5 29 6 4 7 28 8 5 9 6 10 14 11 7 12 13 13
REMARK SMILES IDX 8 14 12 15 9 16 10 17 11 18 2 19 1 20 18 21 19 22 20 23
REMARK SMILES IDX 21 24 22 25 23 26 27 27 24 28 26 29 25 30
REMARK H PARENT 16 3
ROOT
ATOM      1  C   UNL     1     -31.677   2.230  10.486  1.00  0.00    +0.113 C 
ENDROOT
BRANCH   1   2
ATOM      2  N   UNL     1     -30.464   1.596   9.931  1.00  0.00    -0.384 N 
ATOM      3  H   UNL     1     -30.283   1.987   9.006  1.00  0.00    +0.160 HD
BRANCH   2   4
ATOM      4  C   UNL     1     -29.293   1.815  10.728  1.00  0.00    +0.053 A 
ATOM      5  C   UNL     1     -29.732  -0.450  13.735  1.00  0.00    +0.119 A 
ATOM      6  C   UNL     1     -30.003   0.210  12.535  1.00  0.00    +0.059 A 
ATOM      7  C   UNL     1     -28.524  -0.209  14.372  1.00  0.00    +0.048 A 
ATOM      8  C   UNL     1     -29.079   1.115  11.948  1.00  0.00    +0.028 A 
ATOM      9  C   UNL     1     -27.610   0.685  13.806  1.00  0.00    +0.033 A 
ATOM     10  C   UNL     1     -27.864   1.351  12.615  1.00  0.00    +0.073 A 
ATOM     11  C   UNL     1     -28.313   2.730  10.261  1.00  0.00    +0.024 A 
ATOM     12  N   UNL     1     -26.926   2.192  12.159  1.00  0.00    -0.248 NA
ATOM     13  C   UNL     1     -28.463   3.508   9.089  1.00  0.00    +0.014 A 
ATOM     14  C   UNL     1     -27.139   2.871  11.023  1.00  0.00    +0.074 A 
ATOM     15  C   UNL     1     -27.467   4.389   8.674  1.00  0.00    +0.021 A 
ATOM     16  C   UNL     1     -26.154   3.749  10.595  1.00  0.00    +0.049 A 
ATOM     17  C   UNL     1     -26.311   4.501   9.433  1.00  0.00    +0.043 A 
ATOM     18 Cl   UNL     1     -25.066   5.581   8.937  1.00  0.00    -0.084 Cl
BRANCH   5  19
ATOM     19  O   UNL     1     -30.721  -1.290  14.164  1.00  0.00    -0.497 OA
ATOM     20  C   UNL     1     -30.430  -2.098  15.298  1.00  0.00    +0.278 C 
ENDBRANCH   5  19
ENDBRANCH   2   4
ENDBRANCH   1   2
BRANCH   1  21
ATOM     21  C   UNL     1     -32.273   3.246   9.512  1.00  0.00    +0.021 C 
BRANCH  21  22
ATOM     22  C   UNL     1     -33.739   3.589   9.805  1.00  0.00    +0.003 C 
BRANCH  22  23
ATOM     23  C   UNL     1     -34.279   4.867   9.154  1.00  0.00    +0.016 C 
BRANCH  23  24
ATOM     24  C   UNL     1     -33.266   5.556   8.228  1.00  0.00    +0.084 C 
BRANCH  24  25
ATOM     25  N   UNL     1     -33.848   6.701   7.508  1.00  0.00    -0.303 NA
ATOM     26  C   UNL     1     -32.887   7.812   7.388  1.00  0.00    +0.084 C 
ATOM     27  C   UNL     1     -34.395   6.364   6.184  1.00  0.00    +0.084 C 
ATOM     28  C   UNL     1     -31.758   7.552   6.386  1.00  0.00    +0.016 C 
ATOM     29  C   UNL     1     -33.333   6.051   5.127  1.00  0.00    +0.016 C 
ATOM     30  C   UNL     1     -32.312   7.177   5.017  1.00  0.00    +0.003 C 
ENDBRANCH  24  25
ENDBRANCH  23  24
ENDBRANCH  22  23
ENDBRANCH  21  22
ENDBRANCH   1  21
TORSDOF 8
ENDMDL
MODEL 9
REMARK VINA RESULT:    -8.417      6.340      9.071
REMARK INTER + INTRA:         -13.097
REMARK INTER:                 -12.442
REMARK INTRA:                  -0.655
REMARK UNBOUND:                -0.744
REMARK SMILES COc1ccc2nc3cc(Cl)ccc3c(NCCCCCN3CCCCC3)c2c1
REMARK SMILES IDX 17 1 16 2 15 4 3 5 29 6 4 7 28 8 5 9 6 10 14 11 7 12 13 13
REMARK SMILES IDX 8 14 12 15 9 16 10 17 11 18 2 19 1 20 18 21 19 22 20 23
REMARK SMILES IDX 21 24 22 25 23 26 27 27 24 28 26 29 25 30
REMARK H PARENT 16 3
ROOT
ATOM      1  C   UNL     1     -31.575   1.951  10.554  1.00  0.00    +0.113 C 
ENDROOT
BRANCH   1   2
ATOM      2  N   UNL     1     -30.561   1.056   9.962  1.00  0.00    -0.384 N 
ATOM      3  H   UNL     1     -30.066   1.562   9.227  1.00  0.00    +0.160 HD
BRANCH   2   4
ATOM      4  C   UNL     1     -29.582   0.603  10.906  1.00  0.00    +0.053 A 
ATOM      5  C   UNL     1     -26.859   3.238  10.809  1.00  0.00    +0.119 A 
ATOM      6  C   UNL     1     -28.032   2.547  10.500  1.00  0.00    +0.059 A 
ATOM      7  C   UNL     1     -26.029   2.736  11.801  1.00  0.00    +0.048 A 
ATOM      8  C   UNL     1     -28.401   1.351  11.171  1.00  0.00    +0.028 A 
ATOM      9  C   UNL     1     -26.380   1.555  12.464  1.00  0.00    +0.033 A 
ATOM     10  C   UNL     1     -27.542   0.856  12.168  1.00  0.00    +0.073 A 
ATOM     11  C   UNL     1     -29.824  -0.604  11.614  1.00  0.00    +0.024 A 
ATOM     12  N   UNL     1     -27.784  -0.268  12.856  1.00  0.00    -0.248 NA
ATOM     13  C   UNL     1     -30.942  -1.439  11.379  1.00  0.00    +0.014 A 
ATOM     14  C   UNL     1     -28.884  -0.986  12.588  1.00  0.00    +0.074 A 
ATOM     15  C   UNL     1     -31.132  -2.611  12.106  1.00  0.00    +0.021 A 
ATOM     16  C   UNL     1     -29.089  -2.155  13.306  1.00  0.00    +0.049 A 
ATOM     17  C   UNL     1     -30.201  -2.962  13.073  1.00  0.00    +0.043 A 
ATOM     18 Cl   UNL     1     -30.418  -4.405  13.984  1.00  0.00    -0.084 Cl
BRANCH   5  19
ATOM     19  O   UNL     1     -26.650   4.371  10.075  1.00  0.00    -0.497 OA
ATOM     20  C   UNL     1     -25.346   4.557   9.537  1.00  0.00    +0.278 C 
ENDBRANCH   5  19
ENDBRANCH   2   4
ENDBRANCH   1   2
BRANCH   1  21
ATOM     21  C   UNL     1     -31.986   3.055   9.580  1.00  0.00    +0.021 C 
BRANCH  21  22
ATOM     22  C   UNL     1     -33.284   3.769   9.974  1.00  0.00    +0.003 C 
BRANCH  22  23
ATOM     23  C   UNL     1     -34.238   4.121   8.827  1.00  0.00    +0.016 C 
BRANCH  23  24
ATOM     24  C   UNL     1     -35.241   5.228   9.186  1.00  0.00    +0.084 C 
BRANCH  24  25
ATOM     25  N   UNL     1     -36.621   4.883   8.807  1.00  0.00    -0.303 NA
ATOM     26  C   UNL     1     -36.965   3.507   9.207  1.00  0.00    +0.084 C 
ATOM     27  C   UNL     1     -37.636   5.823   9.310  1.00  0.00    +0.084 C 
ATOM     28  C   UNL     1     -37.165   3.331  10.715  1.00  0.00    +0.016 C 
ATOM     29  C   UNL     1     -37.873   5.740  10.821  1.00  0.00    +0.016 C 
ATOM     30  C   UNL     1     -38.197   4.315  11.254  1.00  0.00    +0.003 C 
ENDBRANCH  24  25
ENDBRANCH  23  24
ENDBRANCH  22  23
ENDBRANCH  21  22
ENDBRANCH   1  21
TORSDOF 8
ENDMDL
