MODEL 1
REMARK VINA RESULT:    -8.334      0.000      0.000
REMARK INTER + INTRA:         -10.111
REMARK INTER:                  -9.796
REMARK INTRA:                  -0.315
REMARK UNBOUND:                -0.315
REMARK SMILES Oc1ccc(N=Cc2ccccc2O)cc1
REMARK SMILES IDX 6 1 7 2 5 3 2 4 3 5 16 6 4 7 15 8 1 9 8 11 13 12 9 13 12 14
REMARK SMILES IDX 10 15 11 16 14 17
REMARK H PARENT 1 10 14 18
ROOT
ATOM      1  N   UNL     1     -27.761   8.392   7.245  1.00  0.00    -0.256 NA
ATOM      2  C   UNL     1     -27.004   9.258   6.641  1.00  0.00    +0.123 C 
ENDROOT
BRANCH   1   3
ATOM      3  C   UNL     1     -27.129   7.204   7.637  1.00  0.00    +0.063 A 
ATOM      4  C   UNL     1     -25.848   4.863   8.445  1.00  0.00    +0.115 A 
ATOM      5  C   UNL     1     -25.144   5.810   7.707  1.00  0.00    +0.048 A 
ATOM      6  C   UNL     1     -27.177   5.075   8.793  1.00  0.00    +0.048 A 
ATOM      7  C   UNL     1     -25.788   6.983   7.308  1.00  0.00    +0.032 A 
ATOM      8  C   UNL     1     -27.816   6.250   8.393  1.00  0.00    +0.032 A 
BRANCH   4   9
ATOM      9  O   UNL     1     -25.262   3.703   8.856  1.00  0.00    -0.508 OA
ATOM     10  H   UNL     1     -25.905   2.981   8.762  1.00  0.00    +0.293 HD
ENDBRANCH   4   9
ENDBRANCH   1   3
BRANCH   2  11
ATOM     11  C   UNL     1     -27.542  10.551   6.175  1.00  0.00    +0.035 A 
ATOM     12  C   UNL     1     -26.754  11.471   5.473  1.00  0.00    +0.124 A 
ATOM     13  C   UNL     1     -28.880  10.850   6.450  1.00  0.00    +0.013 A 
ATOM     14  C   UNL     1     -27.297  12.681   5.049  1.00  0.00    +0.047 A 
ATOM     15  C   UNL     1     -29.423  12.064   6.024  1.00  0.00    +0.001 A 
ATOM     16  C   UNL     1     -28.632  12.977   5.324  1.00  0.00    +0.004 A 
BRANCH  12  17
ATOM     17  O   UNL     1     -25.439  11.246   5.168  1.00  0.00    -0.507 OA
ATOM     18  H   UNL     1     -24.990  10.980   6.003  1.00  0.00    +0.293 HD
ENDBRANCH  12  17
ENDBRANCH   2  11
TORSDOF 4
ENDMDL
MODEL 2
REMARK VINA RESULT:    -8.066      5.619      6.453
REMARK INTER + INTRA:          -9.795
REMARK INTER:                  -9.299
REMARK INTRA:                  -0.496
REMARK UNBOUND:                -0.315
REMARK SMILES Oc1ccc(N=Cc2ccccc2O)cc1
REMARK SMILES IDX 6 1 7 2 5 3 2 4 3 5 16 6 4 7 15 8 1 9 8 11 13 12 9 13 12 14
REMARK SMILES IDX 10 15 11 16 14 17
REMARK H PARENT 1 10 14 18
ROOT
ATOM      1  N   UNL     1     -32.887   7.697   6.671  1.00  0.00    -0.256 NA
ATOM      2  C   UNL     1     -31.773   7.862   7.318  1.00  0.00    +0.123 C 
ENDROOT
BRANCH   1   3
ATOM      3  C   UNL     1     -33.440   6.410   6.733  1.00  0.00    +0.063 A 
ATOM      4  C   UNL     1     -34.502   3.835   6.840  1.00  0.00    +0.115 A 
ATOM      5  C   UNL     1     -34.346   4.461   5.608  1.00  0.00    +0.048 A 
ATOM      6  C   UNL     1     -34.125   4.473   8.017  1.00  0.00    +0.048 A 
ATOM      7  C   UNL     1     -33.809   5.750   5.558  1.00  0.00    +0.032 A 
ATOM      8  C   UNL     1     -33.588   5.760   7.962  1.00  0.00    +0.032 A 
BRANCH   4   9
ATOM      9  O   UNL     1     -35.022   2.579   6.939  1.00  0.00    -0.508 OA
ATOM     10  H   UNL     1     -34.997   2.163   6.061  1.00  0.00    +0.293 HD
ENDBRANCH   4   9
ENDBRANCH   1   3
BRANCH   2  11
ATOM     11  C   UNL     1     -31.083   9.167   7.336  1.00  0.00    +0.035 A 
ATOM     12  C   UNL     1     -31.730  10.342   7.737  1.00  0.00    +0.124 A 
ATOM     13  C   UNL     1     -29.743   9.212   6.938  1.00  0.00    +0.013 A 
ATOM     14  C   UNL     1     -31.045  11.554   7.741  1.00  0.00    +0.047 A 
ATOM     15  C   UNL     1     -29.058  10.429   6.942  1.00  0.00    +0.001 A 
ATOM     16  C   UNL     1     -29.709  11.597   7.343  1.00  0.00    +0.004 A 
BRANCH  12  17
ATOM     17  O   UNL     1     -33.038  10.372   8.139  1.00  0.00    -0.507 OA
ATOM     18  H   UNL     1     -33.591  10.261   7.331  1.00  0.00    +0.293 HD
ENDBRANCH  12  17
ENDBRANCH   2  11
TORSDOF 4
ENDMDL
MODEL 3
REMARK VINA RESULT:    -7.745      3.032      8.187
REMARK INTER + INTRA:          -9.419
REMARK INTER:                  -9.000
REMARK INTRA:                  -0.418
REMARK UNBOUND:                -0.315
REMARK SMILES Oc1ccc(N=Cc2ccccc2O)cc1
REMARK SMILES IDX 6 1 7 2 5 3 2 4 3 5 16 6 4 7 15 8 1 9 8 11 13 12 9 13 12 14
REMARK SMILES IDX 10 15 11 16 14 17
REMARK H PARENT 1 10 14 18
ROOT
ATOM      1  N   UNL     1     -25.454   4.733   8.234  1.00  0.00    -0.256 NA
ATOM      2  C   UNL     1     -25.663   4.304   9.443  1.00  0.00    +0.123 C 
ENDROOT
BRANCH   1   3
ATOM      3  C   UNL     1     -26.137   5.905   7.881  1.00  0.00    +0.063 A 
ATOM      4  C   UNL     1     -27.502   8.219   7.138  1.00  0.00    +0.115 A 
ATOM      5  C   UNL     1     -26.243   7.965   6.603  1.00  0.00    +0.048 A 
ATOM      6  C   UNL     1     -28.091   7.330   8.029  1.00  0.00    +0.048 A 
ATOM      7  C   UNL     1     -25.564   6.801   6.974  1.00  0.00    +0.032 A 
ATOM      8  C   UNL     1     -27.410   6.168   8.396  1.00  0.00    +0.032 A 
BRANCH   4   9
ATOM      9  O   UNL     1     -28.202   9.341   6.806  1.00  0.00    -0.508 OA
ATOM     10  H   UNL     1     -27.626   9.922   6.283  1.00  0.00    +0.293 HD
ENDBRANCH   4   9
ENDBRANCH   1   3
BRANCH   2  11
ATOM     11  C   UNL     1     -25.007   3.081   9.946  1.00  0.00    +0.035 A 
ATOM     12  C   UNL     1     -25.427   1.802   9.559  1.00  0.00    +0.124 A 
ATOM     13  C   UNL     1     -23.935   3.222  10.833  1.00  0.00    +0.013 A 
ATOM     14  C   UNL     1     -24.782   0.672  10.055  1.00  0.00    +0.047 A 
ATOM     15  C   UNL     1     -23.290   2.087  11.329  1.00  0.00    +0.001 A 
ATOM     16  C   UNL     1     -23.713   0.815  10.940  1.00  0.00    +0.004 A 
BRANCH  12  17
ATOM     17  O   UNL     1     -26.467   1.589   8.696  1.00  0.00    -0.507 OA
ATOM     18  H   UNL     1     -26.641   2.442   8.237  1.00  0.00    +0.293 HD
ENDBRANCH  12  17
ENDBRANCH   2  11
TORSDOF 4
ENDMDL
MODEL 4
REMARK VINA RESULT:    -7.705      3.866      7.210
REMARK INTER + INTRA:          -9.371
REMARK INTER:                  -9.064
REMARK INTRA:                  -0.307
REMARK UNBOUND:                -0.315
REMARK SMILES Oc1ccc(N=Cc2ccccc2O)cc1
REMARK SMILES IDX 6 1 7 2 5 3 2 4 3 5 16 6 4 7 15 8 1 9 8 11 13 12 9 13 12 14
REMARK SMILES IDX 10 15 11 16 14 17
REMARK H PARENT 1 10 14 18
ROOT
ATOM      1  N   UNL     1     -29.788   8.799   7.322  1.00  0.00    -0.256 NA
ATOM      2  C   UNL     1     -30.984   8.437   6.964  1.00  0.00    +0.123 C 
ENDROOT
BRANCH   1   3
ATOM      3  C   UNL     1     -29.294   9.955   6.703  1.00  0.00    +0.063 A 
ATOM      4  C   UNL     1     -28.312  12.276   5.511  1.00  0.00    +0.115 A 
ATOM      5  C   UNL     1     -29.618  12.251   5.987  1.00  0.00    +0.048 A 
ATOM      6  C   UNL     1     -27.487  11.163   5.632  1.00  0.00    +0.048 A 
ATOM      7  C   UNL     1     -30.106  11.088   6.588  1.00  0.00    +0.032 A 
ATOM      8  C   UNL     1     -27.978  10.003   6.234  1.00  0.00    +0.032 A 
BRANCH   4   9
ATOM      9  O   UNL     1     -27.792  13.387   4.917  1.00  0.00    -0.508 OA
ATOM     10  H   UNL     1     -28.469  13.775   4.338  1.00  0.00    +0.293 HD
ENDBRANCH   4   9
ENDBRANCH   1   3
BRANCH   2  11
ATOM     11  C   UNL     1     -31.625   7.237   7.537  1.00  0.00    +0.035 A 
ATOM     12  C   UNL     1     -32.879   6.789   7.104  1.00  0.00    +0.124 A 
ATOM     13  C   UNL     1     -30.945   6.540   8.541  1.00  0.00    +0.013 A 
ATOM     14  C   UNL     1     -33.450   5.652   7.669  1.00  0.00    +0.047 A 
ATOM     15  C   UNL     1     -31.521   5.400   9.106  1.00  0.00    +0.001 A 
ATOM     16  C   UNL     1     -32.771   4.957   8.670  1.00  0.00    +0.004 A 
BRANCH  12  17
ATOM     17  O   UNL     1     -33.599   7.420   6.127  1.00  0.00    -0.507 OA
ATOM     18  H   UNL     1     -33.117   8.249   5.903  1.00  0.00    +0.293 HD
ENDBRANCH  12  17
ENDBRANCH   2  11
TORSDOF 4
ENDMDL
MODEL 5
REMARK VINA RESULT:    -7.702      1.544      6.702
REMARK INTER + INTRA:          -9.367
REMARK INTER:                  -8.940
REMARK INTRA:                  -0.427
REMARK UNBOUND:                -0.315
REMARK SMILES Oc1ccc(N=Cc2ccccc2O)cc1
REMARK SMILES IDX 6 1 7 2 5 3 2 4 3 5 16 6 4 7 15 8 1 9 8 11 13 12 9 13 12 14
REMARK SMILES IDX 10 15 11 16 14 17
REMARK H PARENT 1 10 14 18
ROOT
ATOM      1  N   UNL     1     -26.456   8.574   6.771  1.00  0.00    -0.256 NA
ATOM      2  C   UNL     1     -27.279   7.833   7.450  1.00  0.00    +0.123 C 
ENDROOT
BRANCH   1   3
ATOM      3  C   UNL     1     -26.981   9.784   6.295  1.00  0.00    +0.063 A 
ATOM      4  C   UNL     1     -28.026  12.205   5.390  1.00  0.00    +0.115 A 
ATOM      5  C   UNL     1     -28.830  11.346   6.131  1.00  0.00    +0.048 A 
ATOM      6  C   UNL     1     -26.705  11.875   5.104  1.00  0.00    +0.048 A 
ATOM      7  C   UNL     1     -28.302  10.136   6.587  1.00  0.00    +0.032 A 
ATOM      8  C   UNL     1     -26.181  10.666   5.563  1.00  0.00    +0.032 A 
BRANCH   4   9
ATOM      9  O   UNL     1     -28.497  13.396   4.923  1.00  0.00    -0.508 OA
ATOM     10  H   UNL     1     -27.762  13.880   4.511  1.00  0.00    +0.293 HD
ENDBRANCH   4   9
ENDBRANCH   1   3
BRANCH   2  11
ATOM     11  C   UNL     1     -26.858   6.534   8.009  1.00  0.00    +0.035 A 
ATOM     12  C   UNL     1     -25.516   6.247   8.287  1.00  0.00    +0.124 A 
ATOM     13  C   UNL     1     -27.841   5.572   8.263  1.00  0.00    +0.013 A 
ATOM     14  C   UNL     1     -25.158   5.009   8.815  1.00  0.00    +0.047 A 
ATOM     15  C   UNL     1     -27.479   4.331   8.792  1.00  0.00    +0.001 A 
ATOM     16  C   UNL     1     -26.140   4.051   9.067  1.00  0.00    +0.004 A 
BRANCH  12  17
ATOM     17  O   UNL     1     -24.502   7.138   8.065  1.00  0.00    -0.507 OA
ATOM     18  H   UNL     1     -24.488   7.325   7.098  1.00  0.00    +0.293 HD
ENDBRANCH  12  17
ENDBRANCH   2  11
TORSDOF 4
ENDMDL
MODEL 6
REMARK VINA RESULT:    -7.101      7.671      9.797
REMARK INTER + INTRA:          -8.661
REMARK INTER:                  -8.179
REMARK INTRA:                  -0.482
REMARK UNBOUND:                -0.315
REMARK SMILES Oc1ccc(N=Cc2ccccc2O)cc1
REMARK SMILES IDX 6 1 7 2 5 3 2 4 3 5 16 6 4 7 15 8 1 9 8 11 13 12 9 13 12 14
REMARK SMILES IDX 10 15 11 16 14 17
REMARK H PARENT 1 10 14 18
ROOT
ATOM      1  N   UNL     1     -28.261   0.117  10.843  1.00  0.00    -0.256 NA
ATOM      2  C   UNL     1     -28.325   1.398  11.048  1.00  0.00    +0.123 C 
ENDROOT
BRANCH   1   3
ATOM      3  C   UNL     1     -29.474  -0.576  10.955  1.00  0.00    +0.063 A 
ATOM      4  C   UNL     1     -31.873  -1.983  11.147  1.00  0.00    +0.115 A 
ATOM      5  C   UNL     1     -31.609  -1.231  10.007  1.00  0.00    +0.048 A 
ATOM      6  C   UNL     1     -30.951  -2.050  12.186  1.00  0.00    +0.048 A 
ATOM      7  C   UNL     1     -30.404  -0.531   9.913  1.00  0.00    +0.032 A 
ATOM      8  C   UNL     1     -29.747  -1.351  12.087  1.00  0.00    +0.032 A 
BRANCH   4   9
ATOM      9  O   UNL     1     -33.035  -2.682  11.285  1.00  0.00    -0.508 OA
ATOM     10  H   UNL     1     -33.767  -2.051  11.380  1.00  0.00    +0.293 HD
ENDBRANCH   4   9
ENDBRANCH   1   3
BRANCH   2  11
ATOM     11  C   UNL     1     -27.122   2.249  10.961  1.00  0.00    +0.035 A 
ATOM     12  C   UNL     1     -26.324   2.290   9.812  1.00  0.00    +0.124 A 
ATOM     13  C   UNL     1     -26.786   3.033  12.070  1.00  0.00    +0.013 A 
ATOM     14  C   UNL     1     -25.197   3.107   9.769  1.00  0.00    +0.047 A 
ATOM     15  C   UNL     1     -25.654   3.851  12.024  1.00  0.00    +0.001 A 
ATOM     16  C   UNL     1     -24.862   3.887  10.876  1.00  0.00    +0.004 A 
BRANCH  12  17
ATOM     17  O   UNL     1     -26.593   1.552   8.692  1.00  0.00    -0.507 OA
ATOM     18  H   UNL     1     -27.161   0.798   8.972  1.00  0.00    +0.293 HD
ENDBRANCH  12  17
ENDBRANCH   2  11
TORSDOF 4
ENDMDL
MODEL 7
REMARK VINA RESULT:    -7.097      2.331      6.783
REMARK INTER + INTRA:          -8.657
REMARK INTER:                  -8.236
REMARK INTRA:                  -0.421
REMARK UNBOUND:                -0.315
REMARK SMILES Oc1ccc(N=Cc2ccccc2O)cc1
REMARK SMILES IDX 6 1 7 2 5 3 2 4 3 5 16 6 4 7 15 8 1 9 8 11 13 12 9 13 12 14
REMARK SMILES IDX 10 15 11 16 14 17
REMARK H PARENT 1 10 14 18
ROOT
ATOM      1  N   UNL     1     -27.879   7.968   7.262  1.00  0.00    -0.256 NA
ATOM      2  C   UNL     1     -28.209   7.010   8.075  1.00  0.00    +0.123 C 
ENDROOT
BRANCH   1   3
ATOM      3  C   UNL     1     -28.871   8.929   7.023  1.00  0.00    +0.063 A 
ATOM      4  C   UNL     1     -30.860  10.833   6.587  1.00  0.00    +0.115 A 
ATOM      5  C   UNL     1     -31.209   9.490   6.693  1.00  0.00    +0.048 A 
ATOM      6  C   UNL     1     -29.535  11.237   6.706  1.00  0.00    +0.048 A 
ATOM      7  C   UNL     1     -30.210   8.540   6.916  1.00  0.00    +0.032 A 
ATOM      8  C   UNL     1     -28.541  10.284   6.931  1.00  0.00    +0.032 A 
BRANCH   4   9
ATOM      9  O   UNL     1     -31.800  11.797   6.369  1.00  0.00    -0.508 OA
ATOM     10  H   UNL     1     -32.479  11.438   5.774  1.00  0.00    +0.293 HD
ENDBRANCH   4   9
ENDBRANCH   1   3
BRANCH   2  11
ATOM     11  C   UNL     1     -27.259   5.932   8.414  1.00  0.00    +0.035 A 
ATOM     12  C   UNL     1     -25.873   6.108   8.316  1.00  0.00    +0.124 A 
ATOM     13  C   UNL     1     -27.776   4.707   8.846  1.00  0.00    +0.013 A 
ATOM     14  C   UNL     1     -25.009   5.067   8.646  1.00  0.00    +0.047 A 
ATOM     15  C   UNL     1     -26.907   3.664   9.176  1.00  0.00    +0.001 A 
ATOM     16  C   UNL     1     -25.527   3.845   9.077  1.00  0.00    +0.004 A 
BRANCH  12  17
ATOM     17  O   UNL     1     -25.298   7.278   7.902  1.00  0.00    -0.507 OA
ATOM     18  H   UNL     1     -25.927   8.003   8.122  1.00  0.00    +0.293 HD
ENDBRANCH  12  17
ENDBRANCH   2  11
TORSDOF 4
ENDMDL
MODEL 8
REMARK VINA RESULT:    -6.931      8.297      9.456
REMARK INTER + INTRA:          -8.461
REMARK INTER:                  -8.018
REMARK INTRA:                  -0.443
REMARK UNBOUND:                -0.315
REMARK SMILES Oc1ccc(N=Cc2ccccc2O)cc1
REMARK SMILES IDX 6 1 7 2 5 3 2 4 3 5 16 6 4 7 15 8 1 9 8 11 13 12 9 13 12 14
REMARK SMILES IDX 10 15 11 16 14 17
REMARK H PARENT 1 10 14 18
ROOT
ATOM      1  N   UNL     1     -34.576   4.812   8.801  1.00  0.00    -0.256 NA
ATOM      2  C   UNL     1     -34.905   5.403   7.692  1.00  0.00    +0.123 C 
ENDROOT
BRANCH   1   3
ATOM      3  C   UNL     1     -35.615   4.141   9.462  1.00  0.00    +0.063 A 
ATOM      4  C   UNL     1     -37.698   2.798  10.737  1.00  0.00    +0.115 A 
ATOM      5  C   UNL     1     -37.953   4.005  10.095  1.00  0.00    +0.048 A 
ATOM      6  C   UNL     1     -36.421   2.248  10.741  1.00  0.00    +0.048 A 
ATOM      7  C   UNL     1     -36.908   4.673   9.453  1.00  0.00    +0.032 A 
ATOM      8  C   UNL     1     -35.379   2.919  10.097  1.00  0.00    +0.032 A 
BRANCH   4   9
ATOM      9  O   UNL     1     -38.686   2.110  11.377  1.00  0.00    -0.508 OA
ATOM     10  H   UNL     1     -38.829   1.269  10.912  1.00  0.00    +0.293 HD
ENDBRANCH   4   9
ENDBRANCH   1   3
BRANCH   2  11
ATOM     11  C   UNL     1     -33.909   6.146   6.896  1.00  0.00    +0.035 A 
ATOM     12  C   UNL     1     -32.778   6.729   7.480  1.00  0.00    +0.124 A 
ATOM     13  C   UNL     1     -34.117   6.261   5.517  1.00  0.00    +0.013 A 
ATOM     14  C   UNL     1     -31.860   7.422   6.694  1.00  0.00    +0.047 A 
ATOM     15  C   UNL     1     -33.195   6.957   4.731  1.00  0.00    +0.001 A 
ATOM     16  C   UNL     1     -32.069   7.535   5.319  1.00  0.00    +0.004 A 
BRANCH  12  17
ATOM     17  O   UNL     1     -32.511   6.656   8.820  1.00  0.00    -0.507 OA
ATOM     18  H   UNL     1     -32.339   7.575   9.130  1.00  0.00    +0.293 HD
ENDBRANCH  12  17
ENDBRANCH   2  11
TORSDOF 4
ENDMDL
MODEL 9
REMARK VINA RESULT:    -6.818      8.724     10.248
REMARK INTER + INTRA:          -8.328
REMARK INTER:                  -8.019
REMARK INTRA:                  -0.309
REMARK UNBOUND:                -0.315
REMARK SMILES Oc1ccc(N=Cc2ccccc2O)cc1
REMARK SMILES IDX 6 1 7 2 5 3 2 4 3 5 16 6 4 7 15 8 1 9 8 11 13 12 9 13 12 14
REMARK SMILES IDX 10 15 11 16 14 17
REMARK H PARENT 1 10 14 18
ROOT
ATOM      1  N   UNL     1     -34.755   3.116  10.892  1.00  0.00    -0.256 NA
ATOM      2  C   UNL     1     -35.182   3.914   9.960  1.00  0.00    +0.123 C 
ENDROOT
BRANCH   1   3
ATOM      3  C   UNL     1     -33.436   2.666  10.748  1.00  0.00    +0.063 A 
ATOM      4  C   UNL     1     -30.826   1.733  10.449  1.00  0.00    +0.115 A 
ATOM      5  C   UNL     1     -31.618   1.235  11.479  1.00  0.00    +0.048 A 
ATOM      6  C   UNL     1     -31.323   2.681   9.562  1.00  0.00    +0.048 A 
ATOM      7  C   UNL     1     -32.927   1.702  11.623  1.00  0.00    +0.032 A 
ATOM      8  C   UNL     1     -32.632   3.143   9.709  1.00  0.00    +0.032 A 
BRANCH   4   9
ATOM      9  O   UNL     1     -29.543   1.308  10.269  1.00  0.00    -0.508 OA
ATOM     10  H   UNL     1     -29.096   1.922   9.663  1.00  0.00    +0.293 HD
ENDBRANCH   4   9
ENDBRANCH   1   3
BRANCH   2  11
ATOM     11  C   UNL     1     -36.552   4.462   9.988  1.00  0.00    +0.035 A 
ATOM     12  C   UNL     1     -36.840   5.759   9.548  1.00  0.00    +0.124 A 
ATOM     13  C   UNL     1     -37.581   3.646  10.470  1.00  0.00    +0.013 A 
ATOM     14  C   UNL     1     -38.147   6.240   9.590  1.00  0.00    +0.047 A 
ATOM     15  C   UNL     1     -38.890   4.131  10.511  1.00  0.00    +0.001 A 
ATOM     16  C   UNL     1     -39.172   5.426  10.071  1.00  0.00    +0.004 A 
BRANCH  12  17
ATOM     17  O   UNL     1     -35.885   6.611   9.064  1.00  0.00    -0.507 OA
ATOM     18  H   UNL     1     -36.310   7.494   8.964  1.00  0.00    +0.293 HD
ENDBRANCH  12  17
ENDBRANCH   2  11
TORSDOF 4
ENDMDL
