REMARK SMILES N[C@H](Cc1n[nH]c2ccccc12)C(=O)O
REMARK SMILES IDX 2 1 1 2 3 5 4 6 5 7 12 8 6 9 7 10 11 11 8 12 10 13 9 14
REMARK SMILES IDX 13 16 14 17 15 18
REMARK H PARENT 1 3 1 4 6 15 15 19
ROOT
ATOM      1  C   UNL     1       2.641   0.038   0.393  1.00  0.00    +0.168 C 
ENDROOT
BRANCH   1   2
ATOM      2  N   UNL     1       3.182   1.008  -0.599  1.00  0.00    -0.318 NA
ATOM      3  H   UNL     1       3.324   1.895  -0.106  1.00  0.00    +0.119 HD
ATOM      4  H   UNL     1       2.425   1.207  -1.267  1.00  0.00    +0.119 HD
ENDBRANCH   1   2
BRANCH   1   5
ATOM      5  C   UNL     1       1.712  -1.007  -0.245  1.00  0.00    +0.089 C 
BRANCH   5   6
ATOM      6  C   UNL     1       0.428  -0.442  -0.775  1.00  0.00    +0.072 A 
ATOM      7  N   UNL     1       0.437   0.342  -1.864  1.00  0.00    -0.179 NA
ATOM      8  C   UNL     1      -0.886  -0.612  -0.257  1.00  0.00    +0.023 A 
ATOM      9  N   UNL     1      -0.861   0.634  -2.060  1.00  0.00    -0.278 N 
ATOM     10  C   UNL     1      -1.705   0.104  -1.123  1.00  0.00    +0.065 A 
ATOM     11  C   UNL     1      -1.470  -1.278   0.835  1.00  0.00    +0.012 A 
ATOM     12  C   UNL     1      -3.092   0.190  -0.969  1.00  0.00    +0.028 A 
ATOM     13  C   UNL     1      -2.858  -1.204   1.011  1.00  0.00    +0.001 A 
ATOM     14  C   UNL     1      -3.653  -0.483   0.121  1.00  0.00    +0.002 A 
ATOM     15  H   UNL     1      -1.108   1.212  -2.855  1.00  0.00    +0.190 HD
ENDBRANCH   5   6
ENDBRANCH   1   5
BRANCH   1  16
ATOM     16  C   UNL     1       1.927   0.742   1.551  1.00  0.00    +0.320 C 
ATOM     17  O   UNL     1       1.295   0.199   2.445  1.00  0.00    -0.251 OA
BRANCH  16  18
ATOM     18  O   UNL     1       2.081   2.086   1.552  1.00  0.00    -0.480 OA
ATOM     19  H   UNL     1       1.569   2.378   2.336  1.00  0.00    +0.296 HD
ENDBRANCH  16  18
ENDBRANCH   1  16
TORSDOF 5
