REMARK SMILES N=C(NN=C1C(=O)Nc2ccccc21)NN(O)O
REMARK SMILES IDX 15 1 2 2 1 3 3 4 16 8 17 9 18 11 4 13 5 14 6 15 14 16 7 17
REMARK SMILES IDX 8 18 9 19 13 20 10 21 12 22 11 23
REMARK H PARENT 15 5 1 6 3 7 17 10 18 12 8 24
ROOT
ATOM      1  N   UNL     1       3.736  -0.413   0.542  1.00  0.00    -0.240 N 
ATOM      2  C   UNL     1       2.690   0.121  -0.175  1.00  0.00    +0.227 C 
ATOM      3  N   UNL     1       2.822   0.749  -1.310  1.00  0.00    -0.267 NA
ATOM      4  N   UNL     1       1.451  -0.100   0.367  1.00  0.00    -0.246 N 
ATOM      5  H   UNL     1       3.556  -0.535   1.531  1.00  0.00    +0.190 HD
ATOM      6  H   UNL     1       1.844   0.982  -1.550  1.00  0.00    +0.191 HD
ATOM      7  H   UNL     1       1.407  -0.777   1.135  1.00  0.00    +0.193 HD
ENDROOT
BRANCH   1   8
ATOM      8  N   UNL     1       5.010   0.093   0.286  1.00  0.00    +0.033 NA
BRANCH   8   9
ATOM      9  O   UNL     1       5.373  -0.098  -1.104  1.00  0.00    -0.271 OA
ATOM     10  H   UNL     1       4.569   0.289  -1.521  1.00  0.00    +0.243 HD
ENDBRANCH   8   9
BRANCH   8  11
ATOM     11  O   UNL     1       5.981  -0.630   1.074  1.00  0.00    -0.271 OA
ATOM     12  H   UNL     1       6.626   0.084   1.214  1.00  0.00    +0.243 HD
ENDBRANCH   8  11
ENDBRANCH   1   8
BRANCH   4  13
ATOM     13  N   UNL     1       0.285   0.317  -0.222  1.00  0.00    -0.167 NA
ATOM     14  C   UNL     1      -0.811  -0.082   0.343  1.00  0.00    +0.158 C 
ATOM     15  C   UNL     1      -0.974  -0.967   1.583  1.00  0.00    +0.276 C 
ATOM     16  C   UNL     1      -2.164   0.238  -0.098  1.00  0.00    +0.031 A 
ATOM     17  O   UNL     1      -0.054  -1.435   2.221  1.00  0.00    -0.267 OA
ATOM     18  N   UNL     1      -2.332  -1.093   1.774  1.00  0.00    -0.320 N 
ATOM     19  C   UNL     1      -3.031  -0.393   0.794  1.00  0.00    +0.051 A 
ATOM     20  C   UNL     1      -2.612   0.995  -1.160  1.00  0.00    +0.013 A 
ATOM     21  C   UNL     1      -4.399  -0.289   0.656  1.00  0.00    +0.027 A 
ATOM     22  C   UNL     1      -3.996   1.111  -1.313  1.00  0.00    +0.001 A 
ATOM     23  C   UNL     1      -4.879   0.475  -0.415  1.00  0.00    +0.002 A 
ATOM     24  H   UNL     1      -2.741  -1.630   2.524  1.00  0.00    +0.170 HD
ENDBRANCH   4  13
TORSDOF 4
