MODEL 1
REMARK VINA RESULT:    -8.984      0.000      0.000
REMARK INTER + INTRA:         -10.551
REMARK INTER:                 -10.560
REMARK INTRA:                   0.009
REMARK UNBOUND:                 0.009
REMARK SMILES CNNc1ncnc2c1cnn2-c1ccccc1
REMARK SMILES IDX 3 1 2 3 1 4 4 6 9 7 5 8 10 9 8 10 6 11 11 12 12 13 7 14
REMARK SMILES IDX 13 15 14 16 18 17 15 18 17 19 16 20
REMARK H PARENT 3 2 2 5
ROOT
ATOM      1  N   UNL     1     -25.206   5.023   8.075  1.00  0.00    -0.305 N 
ATOM      2  H   UNL     1     -24.262   5.403   8.106  1.00  0.00    +0.183 HD
ENDROOT
BRANCH   1   3
ATOM      3  N   UNL     1     -25.469   3.957   8.968  1.00  0.00    -0.239 NA
ATOM      4  C   UNL     1     -24.766   4.228  10.220  1.00  0.00    +0.127 C 
ATOM      5  H   UNL     1     -25.083   3.093   8.562  1.00  0.00    +0.147 HD
ENDBRANCH   1   3
BRANCH   1   6
ATOM      6  C   UNL     1     -26.198   6.018   7.952  1.00  0.00    +0.154 A 
ATOM      7  C   UNL     1     -25.989   7.212   7.249  1.00  0.00    +0.083 A 
ATOM      8  N   UNL     1     -27.420   5.820   8.518  1.00  0.00    -0.217 NA
ATOM      9  C   UNL     1     -24.949   7.808   6.524  1.00  0.00    +0.150 A 
ATOM     10  C   UNL     1     -27.033   8.123   7.184  1.00  0.00    +0.168 A 
ATOM     11  C   UNL     1     -28.353   6.778   8.387  1.00  0.00    +0.226 A 
ATOM     12  N   UNL     1     -25.271   9.004   6.035  1.00  0.00    -0.174 NA
ATOM     13  N   UNL     1     -26.565   9.208   6.439  1.00  0.00    -0.215 N 
ATOM     14  N   UNL     1     -28.248   7.950   7.746  1.00  0.00    -0.216 NA
BRANCH  13  15
ATOM     15  C   UNL     1     -27.232  10.418   6.077  1.00  0.00    +0.067 A 
ATOM     16  C   UNL     1     -26.539  11.383   5.324  1.00  0.00    +0.028 A 
ATOM     17  C   UNL     1     -28.558  10.678   6.449  1.00  0.00    +0.028 A 
ATOM     18  C   UNL     1     -27.160  12.578   4.952  1.00  0.00    +0.002 A 
ATOM     19  C   UNL     1     -29.175  11.877   6.073  1.00  0.00    +0.002 A 
ATOM     20  C   UNL     1     -28.478  12.824   5.327  1.00  0.00    +0.000 A 
ENDBRANCH  13  15
ENDBRANCH   1   6
TORSDOF 3
ENDMDL
MODEL 2
REMARK VINA RESULT:    -8.844      0.864      2.339
REMARK INTER + INTRA:         -10.386
REMARK INTER:                 -10.352
REMARK INTRA:                  -0.034
REMARK UNBOUND:                 0.009
REMARK SMILES CNNc1ncnc2c1cnn2-c1ccccc1
REMARK SMILES IDX 3 1 2 3 1 4 4 6 9 7 5 8 10 9 8 10 6 11 11 12 12 13 7 14
REMARK SMILES IDX 13 15 14 16 18 17 15 18 17 19 16 20
REMARK H PARENT 3 2 2 5
ROOT
ATOM      1  N   UNL     1     -26.367   4.806   8.500  1.00  0.00    -0.305 N 
ATOM      2  H   UNL     1     -25.911   4.013   8.054  1.00  0.00    +0.183 HD
ENDROOT
BRANCH   1   3
ATOM      3  N   UNL     1     -26.320   4.827   9.914  1.00  0.00    -0.239 NA
ATOM      4  C   UNL     1     -25.023   4.301  10.335  1.00  0.00    +0.127 C 
ATOM      5  H   UNL     1     -27.054   4.199  10.271  1.00  0.00    +0.147 HD
ENDBRANCH   1   3
BRANCH   1   6
ATOM      6  C   UNL     1     -26.131   6.026   7.832  1.00  0.00    +0.154 A 
ATOM      7  C   UNL     1     -27.117   7.011   7.685  1.00  0.00    +0.083 A 
ATOM      8  N   UNL     1     -24.897   6.282   7.318  1.00  0.00    -0.217 NA
ATOM      9  C   UNL     1     -28.458   7.185   8.052  1.00  0.00    +0.150 A 
ATOM     10  C   UNL     1     -26.779   8.178   7.015  1.00  0.00    +0.168 A 
ATOM     11  C   UNL     1     -24.691   7.450   6.687  1.00  0.00    +0.226 A 
ATOM     12  N   UNL     1     -28.962   8.350   7.653  1.00  0.00    -0.174 NA
ATOM     13  N   UNL     1     -27.926   8.975   7.008  1.00  0.00    -0.215 N 
ATOM     14  N   UNL     1     -25.566   8.446   6.489  1.00  0.00    -0.216 NA
BRANCH  13  15
ATOM     15  C   UNL     1     -28.128  10.274   6.447  1.00  0.00    +0.067 A 
ATOM     16  C   UNL     1     -29.357  10.927   6.656  1.00  0.00    +0.028 A 
ATOM     17  C   UNL     1     -27.141  10.920   5.691  1.00  0.00    +0.028 A 
ATOM     18  C   UNL     1     -29.589  12.196   6.122  1.00  0.00    +0.002 A 
ATOM     19  C   UNL     1     -27.380  12.192   5.159  1.00  0.00    +0.002 A 
ATOM     20  C   UNL     1     -28.600  12.829   5.374  1.00  0.00    +0.000 A 
ENDBRANCH  13  15
ENDBRANCH   1   6
TORSDOF 3
ENDMDL
MODEL 3
REMARK VINA RESULT:    -8.397      1.734      6.556
REMARK INTER + INTRA:          -9.860
REMARK INTER:                  -9.503
REMARK INTRA:                  -0.357
REMARK UNBOUND:                 0.009
REMARK SMILES CNNc1ncnc2c1cnn2-c1ccccc1
REMARK SMILES IDX 3 1 2 3 1 4 4 6 9 7 5 8 10 9 8 10 6 11 11 12 12 13 7 14
REMARK SMILES IDX 13 15 14 16 18 17 15 18 17 19 16 20
REMARK H PARENT 3 2 2 5
ROOT
ATOM      1  N   UNL     1     -26.113   8.995   5.418  1.00  0.00    -0.305 N 
ATOM      2  H   UNL     1     -26.695   9.156   4.599  1.00  0.00    +0.183 HD
ENDROOT
BRANCH   1   3
ATOM      3  N   UNL     1     -25.288  10.076   5.809  1.00  0.00    -0.239 NA
ATOM      4  C   UNL     1     -25.972  11.320   5.464  1.00  0.00    +0.127 C 
ATOM      5  H   UNL     1     -24.415  10.027   5.266  1.00  0.00    +0.147 HD
ENDBRANCH   1   3
BRANCH   1   6
ATOM      6  C   UNL     1     -26.786   8.297   6.444  1.00  0.00    +0.154 A 
ATOM      7  C   UNL     1     -26.268   7.138   7.035  1.00  0.00    +0.083 A 
ATOM      8  N   UNL     1     -27.979   8.764   6.902  1.00  0.00    -0.217 NA
ATOM      9  C   UNL     1     -25.121   6.343   6.907  1.00  0.00    +0.150 A 
ATOM     10  C   UNL     1     -27.007   6.531   8.041  1.00  0.00    +0.168 A 
ATOM     11  C   UNL     1     -28.603   8.088   7.881  1.00  0.00    +0.226 A 
ATOM     12  N   UNL     1     -25.108   5.305   7.739  1.00  0.00    -0.174 NA
ATOM     13  N   UNL     1     -26.276   5.413   8.449  1.00  0.00    -0.215 N 
ATOM     14  N   UNL     1     -28.196   6.972   8.501  1.00  0.00    -0.216 NA
BRANCH  13  15
ATOM     15  C   UNL     1     -26.584   4.440   9.449  1.00  0.00    +0.067 A 
ATOM     16  C   UNL     1     -25.742   4.319  10.569  1.00  0.00    +0.028 A 
ATOM     17  C   UNL     1     -27.700   3.599   9.350  1.00  0.00    +0.028 A 
ATOM     18  C   UNL     1     -26.013   3.380  11.566  1.00  0.00    +0.002 A 
ATOM     19  C   UNL     1     -27.966   2.659  10.353  1.00  0.00    +0.002 A 
ATOM     20  C   UNL     1     -27.125   2.550  11.458  1.00  0.00    +0.000 A 
ENDBRANCH  13  15
ENDBRANCH   1   6
TORSDOF 3
ENDMDL
MODEL 4
REMARK VINA RESULT:    -7.994      8.340     10.144
REMARK INTER + INTRA:          -9.387
REMARK INTER:                  -9.017
REMARK INTRA:                  -0.370
REMARK UNBOUND:                 0.009
REMARK SMILES CNNc1ncnc2c1cnn2-c1ccccc1
REMARK SMILES IDX 3 1 2 3 1 4 4 6 9 7 5 8 10 9 8 10 6 11 11 12 12 13 7 14
REMARK SMILES IDX 13 15 14 16 18 17 15 18 17 19 16 20
REMARK H PARENT 3 2 2 5
ROOT
ATOM      1  N   UNL     1     -37.767   2.501  10.320  1.00  0.00    -0.305 N 
ATOM      2  H   UNL     1     -37.133   2.028  10.959  1.00  0.00    +0.183 HD
ENDROOT
BRANCH   1   3
ATOM      3  N   UNL     1     -39.132   2.499  10.694  1.00  0.00    -0.239 NA
ATOM      4  C   UNL     1     -39.403   1.262  11.422  1.00  0.00    +0.127 C 
ATOM      5  H   UNL     1     -39.702   2.500   9.837  1.00  0.00    +0.147 HD
ENDBRANCH   1   3
BRANCH   1   6
ATOM      6  C   UNL     1     -37.242   3.709   9.813  1.00  0.00    +0.154 A 
ATOM      7  C   UNL     1     -36.157   3.748   8.928  1.00  0.00    +0.083 A 
ATOM      8  N   UNL     1     -37.810   4.891  10.174  1.00  0.00    -0.217 NA
ATOM      9  C   UNL     1     -35.311   2.827   8.298  1.00  0.00    +0.150 A 
ATOM     10  C   UNL     1     -35.720   4.989   8.485  1.00  0.00    +0.168 A 
ATOM     11  C   UNL     1     -37.298   6.030   9.679  1.00  0.00    +0.226 A 
ATOM     12  N   UNL     1     -34.396   3.403   7.521  1.00  0.00    -0.174 NA
ATOM     13  N   UNL     1     -34.643   4.746   7.630  1.00  0.00    -0.215 N 
ATOM     14  N   UNL     1     -36.264   6.173   8.839  1.00  0.00    -0.216 NA
BRANCH  13  15
ATOM     15  C   UNL     1     -33.828   5.673   6.908  1.00  0.00    +0.067 A 
ATOM     16  C   UNL     1     -32.756   6.300   7.568  1.00  0.00    +0.028 A 
ATOM     17  C   UNL     1     -34.063   5.978   5.561  1.00  0.00    +0.028 A 
ATOM     18  C   UNL     1     -31.939   7.210   6.894  1.00  0.00    +0.002 A 
ATOM     19  C   UNL     1     -33.241   6.891   4.891  1.00  0.00    +0.002 A 
ATOM     20  C   UNL     1     -32.182   7.506   5.556  1.00  0.00    +0.000 A 
ENDBRANCH  13  15
ENDBRANCH   1   6
TORSDOF 3
ENDMDL
MODEL 5
REMARK VINA RESULT:    -7.884      4.371      6.017
REMARK INTER + INTRA:          -9.257
REMARK INTER:                  -8.957
REMARK INTRA:                  -0.301
REMARK UNBOUND:                 0.009
REMARK SMILES CNNc1ncnc2c1cnn2-c1ccccc1
REMARK SMILES IDX 3 1 2 3 1 4 4 6 9 7 5 8 10 9 8 10 6 11 11 12 12 13 7 14
REMARK SMILES IDX 13 15 14 16 18 17 15 18 17 19 16 20
REMARK H PARENT 3 2 2 5
ROOT
ATOM      1  N   UNL     1     -34.441   7.483   7.840  1.00  0.00    -0.305 N 
ATOM      2  H   UNL     1     -35.303   7.819   7.417  1.00  0.00    +0.183 HD
ENDROOT
BRANCH   1   3
ATOM      3  N   UNL     1     -34.515   6.213   8.461  1.00  0.00    -0.239 NA
ATOM      4  C   UNL     1     -35.925   5.853   8.595  1.00  0.00    +0.127 C 
ATOM      5  H   UNL     1     -34.111   6.291   9.405  1.00  0.00    +0.147 HD
ENDBRANCH   1   3
BRANCH   1   6
ATOM      6  C   UNL     1     -33.300   7.748   7.054  1.00  0.00    +0.154 A 
ATOM      7  C   UNL     1     -32.470   8.855   7.274  1.00  0.00    +0.083 A 
ATOM      8  N   UNL     1     -32.967   6.895   6.047  1.00  0.00    -0.217 NA
ATOM      9  C   UNL     1     -32.414   9.935   8.165  1.00  0.00    +0.150 A 
ATOM     10  C   UNL     1     -31.369   9.020   6.447  1.00  0.00    +0.168 A 
ATOM     11  C   UNL     1     -31.875   7.162   5.311  1.00  0.00    +0.226 A 
ATOM     12  N   UNL     1     -31.381  10.744   7.940  1.00  0.00    -0.174 NA
ATOM     13  N   UNL     1     -30.725  10.184   6.875  1.00  0.00    -0.215 N 
ATOM     14  N   UNL     1     -31.027   8.193   5.437  1.00  0.00    -0.216 NA
BRANCH  13  15
ATOM     15  C   UNL     1     -29.545  10.810   6.366  1.00  0.00    +0.067 A 
ATOM     16  C   UNL     1     -29.609  12.152   5.950  1.00  0.00    +0.028 A 
ATOM     17  C   UNL     1     -28.325  10.130   6.267  1.00  0.00    +0.028 A 
ATOM     18  C   UNL     1     -28.476  12.796   5.447  1.00  0.00    +0.002 A 
ATOM     19  C   UNL     1     -27.193  10.781   5.762  1.00  0.00    +0.002 A 
ATOM     20  C   UNL     1     -27.268  12.111   5.354  1.00  0.00    +0.000 A 
ENDBRANCH  13  15
ENDBRANCH   1   6
TORSDOF 3
ENDMDL
MODEL 6
REMARK VINA RESULT:    -7.718      8.117      9.925
REMARK INTER + INTRA:          -9.062
REMARK INTER:                  -8.688
REMARK INTRA:                  -0.374
REMARK UNBOUND:                 0.009
REMARK SMILES CNNc1ncnc2c1cnn2-c1ccccc1
REMARK SMILES IDX 3 1 2 3 1 4 4 6 9 7 5 8 10 9 8 10 6 11 11 12 12 13 7 14
REMARK SMILES IDX 13 15 14 16 18 17 15 18 17 19 16 20
REMARK H PARENT 3 2 2 5
ROOT
ATOM      1  N   UNL     1     -37.800   2.817  10.322  1.00  0.00    -0.305 N 
ATOM      2  H   UNL     1     -38.668   3.107   9.875  1.00  0.00    +0.183 HD
ENDROOT
BRANCH   1   3
ATOM      3  N   UNL     1     -37.871   1.630  11.089  1.00  0.00    -0.239 NA
ATOM      4  C   UNL     1     -39.263   1.422  11.482  1.00  0.00    +0.127 C 
ATOM      5  H   UNL     1     -37.311   1.764  11.943  1.00  0.00    +0.147 HD
ENDBRANCH   1   3
BRANCH   1   6
ATOM      6  C   UNL     1     -36.671   2.980   9.492  1.00  0.00    +0.154 A 
ATOM      7  C   UNL     1     -36.287   4.223   8.974  1.00  0.00    +0.083 A 
ATOM      8  N   UNL     1     -35.902   1.900   9.187  1.00  0.00    -0.217 NA
ATOM      9  C   UNL     1     -36.742   5.547   9.036  1.00  0.00    +0.150 A 
ATOM     10  C   UNL     1     -35.155   4.276   8.173  1.00  0.00    +0.168 A 
ATOM     11  C   UNL     1     -34.828   2.076   8.398  1.00  0.00    +0.226 A 
ATOM     12  N   UNL     1     -35.990   6.392   8.334  1.00  0.00    -0.174 NA
ATOM     13  N   UNL     1     -35.001   5.611   7.794  1.00  0.00    -0.215 N 
ATOM     14  N   UNL     1     -34.386   3.215   7.850  1.00  0.00    -0.216 NA
BRANCH  13  15
ATOM     15  C   UNL     1     -34.002   6.213   6.968  1.00  0.00    +0.067 A 
ATOM     16  C   UNL     1     -34.153   6.171   5.570  1.00  0.00    +0.028 A 
ATOM     17  C   UNL     1     -32.872   6.844   7.505  1.00  0.00    +0.028 A 
ATOM     18  C   UNL     1     -33.197   6.748   4.733  1.00  0.00    +0.002 A 
ATOM     19  C   UNL     1     -31.917   7.421   6.661  1.00  0.00    +0.002 A 
ATOM     20  C   UNL     1     -32.079   7.373   5.278  1.00  0.00    +0.000 A 
ENDBRANCH  13  15
ENDBRANCH   1   6
TORSDOF 3
ENDMDL
MODEL 7
REMARK VINA RESULT:    -7.705      3.370      5.840
REMARK INTER + INTRA:          -9.048
REMARK INTER:                  -8.863
REMARK INTRA:                  -0.184
REMARK UNBOUND:                 0.009
REMARK SMILES CNNc1ncnc2c1cnn2-c1ccccc1
REMARK SMILES IDX 3 1 2 3 1 4 4 6 9 7 5 8 10 9 8 10 6 11 11 12 12 13 7 14
REMARK SMILES IDX 13 15 14 16 18 17 15 18 17 19 16 20
REMARK H PARENT 3 2 2 5
ROOT
ATOM      1  N   UNL     1     -26.166   0.669  11.964  1.00  0.00    -0.305 N 
ATOM      2  H   UNL     1     -27.149   0.762  12.212  1.00  0.00    +0.183 HD
ENDROOT
BRANCH   1   3
ATOM      3  N   UNL     1     -25.778  -0.594  11.456  1.00  0.00    -0.239 NA
ATOM      4  C   UNL     1     -26.934  -1.485  11.518  1.00  0.00    +0.127 C 
ATOM      5  H   UNL     1     -25.043  -0.976  12.068  1.00  0.00    +0.147 HD
ENDBRANCH   1   3
BRANCH   1   6
ATOM      6  C   UNL     1     -25.651   1.809  11.312  1.00  0.00    +0.154 A 
ATOM      7  C   UNL     1     -26.442   2.644  10.512  1.00  0.00    +0.083 A 
ATOM      8  N   UNL     1     -24.340   2.137  11.470  1.00  0.00    -0.217 NA
ATOM      9  C   UNL     1     -27.779   2.708  10.101  1.00  0.00    +0.150 A 
ATOM     10  C   UNL     1     -25.837   3.745   9.921  1.00  0.00    +0.168 A 
ATOM     11  C   UNL     1     -23.869   3.228  10.845  1.00  0.00    +0.226 A 
ATOM     12  N   UNL     1     -28.033   3.744   9.305  1.00  0.00    -0.174 NA
ATOM     13  N   UNL     1     -26.833   4.395   9.188  1.00  0.00    -0.215 N 
ATOM     14  N   UNL     1     -24.537   4.081  10.057  1.00  0.00    -0.216 NA
BRANCH  13  15
ATOM     15  C   UNL     1     -26.748   5.576   8.388  1.00  0.00    +0.067 A 
ATOM     16  C   UNL     1     -27.817   6.491   8.402  1.00  0.00    +0.028 A 
ATOM     17  C   UNL     1     -25.634   5.855   7.586  1.00  0.00    +0.028 A 
ATOM     18  C   UNL     1     -27.769   7.655   7.633  1.00  0.00    +0.002 A 
ATOM     19  C   UNL     1     -25.591   7.023   6.817  1.00  0.00    +0.002 A 
ATOM     20  C   UNL     1     -26.656   7.921   6.841  1.00  0.00    +0.000 A 
ENDBRANCH  13  15
ENDBRANCH   1   6
TORSDOF 3
ENDMDL
MODEL 8
REMARK VINA RESULT:    -7.698      7.690      9.763
REMARK INTER + INTRA:          -9.038
REMARK INTER:                  -8.624
REMARK INTRA:                  -0.414
REMARK UNBOUND:                 0.009
REMARK SMILES CNNc1ncnc2c1cnn2-c1ccccc1
REMARK SMILES IDX 3 1 2 3 1 4 4 6 9 7 5 8 10 9 8 10 6 11 11 12 12 13 7 14
REMARK SMILES IDX 13 15 14 16 18 17 15 18 17 19 16 20
REMARK H PARENT 3 2 2 5
ROOT
ATOM      1  N   UNL     1     -23.763   1.385   9.165  1.00  0.00    -0.305 N 
ATOM      2  H   UNL     1     -23.786   2.394   9.296  1.00  0.00    +0.183 HD
ENDROOT
BRANCH   1   3
ATOM      3  N   UNL     1     -22.477   0.796   9.156  1.00  0.00    -0.239 NA
ATOM      4  C   UNL     1     -21.774   1.217  10.366  1.00  0.00    +0.127 C 
ATOM      5  H   UNL     1     -21.961   1.157   8.342  1.00  0.00    +0.147 HD
ENDBRANCH   1   3
BRANCH   1   6
ATOM      6  C   UNL     1     -24.773   0.712   9.884  1.00  0.00    +0.154 A 
ATOM      7  C   UNL     1     -25.771   1.388  10.598  1.00  0.00    +0.083 A 
ATOM      8  N   UNL     1     -24.806  -0.648   9.881  1.00  0.00    -0.217 NA
ATOM      9  C   UNL     1     -26.129   2.718  10.854  1.00  0.00    +0.150 A 
ATOM     10  C   UNL     1     -26.722   0.631  11.267  1.00  0.00    +0.168 A 
ATOM     11  C   UNL     1     -25.778  -1.271  10.568  1.00  0.00    +0.226 A 
ATOM     12  N   UNL     1     -27.207   2.830  11.627  1.00  0.00    -0.174 NA
ATOM     13  N   UNL     1     -27.584   1.538  11.888  1.00  0.00    -0.215 N 
ATOM     14  N   UNL     1     -26.766  -0.718  11.284  1.00  0.00    -0.216 NA
BRANCH  13  15
ATOM     15  C   UNL     1     -28.729   1.291  12.706  1.00  0.00    +0.067 A 
ATOM     16  C   UNL     1     -28.595   1.337  14.105  1.00  0.00    +0.028 A 
ATOM     17  C   UNL     1     -29.986   1.002  12.159  1.00  0.00    +0.028 A 
ATOM     18  C   UNL     1     -29.692   1.101  14.935  1.00  0.00    +0.002 A 
ATOM     19  C   UNL     1     -31.083   0.766  12.996  1.00  0.00    +0.002 A 
ATOM     20  C   UNL     1     -30.937   0.815  14.380  1.00  0.00    +0.000 A 
ENDBRANCH  13  15
ENDBRANCH   1   6
TORSDOF 3
ENDMDL
MODEL 9
REMARK VINA RESULT:    -7.646      4.987      6.539
REMARK INTER + INTRA:          -8.978
REMARK INTER:                  -8.741
REMARK INTRA:                  -0.237
REMARK UNBOUND:                 0.009
REMARK SMILES CNNc1ncnc2c1cnn2-c1ccccc1
REMARK SMILES IDX 3 1 2 3 1 4 4 6 9 7 5 8 10 9 8 10 6 11 11 12 12 13 7 14
REMARK SMILES IDX 13 15 14 16 18 17 15 18 17 19 16 20
REMARK H PARENT 3 2 2 5
ROOT
ATOM      1  N   UNL     1     -34.754   3.932   7.178  1.00  0.00    -0.305 N 
ATOM      2  H   UNL     1     -34.892   4.034   6.175  1.00  0.00    +0.183 HD
ENDROOT
BRANCH   1   3
ATOM      3  N   UNL     1     -34.802   2.608   7.673  1.00  0.00    -0.239 NA
ATOM      4  C   UNL     1     -35.909   2.515   8.622  1.00  0.00    +0.127 C 
ATOM      5  H   UNL     1     -33.926   2.421   8.181  1.00  0.00    +0.147 HD
ENDBRANCH   1   3
BRANCH   1   6
ATOM      6  C   UNL     1     -33.738   4.771   7.684  1.00  0.00    +0.154 A 
ATOM      7  C   UNL     1     -33.230   5.860   6.965  1.00  0.00    +0.083 A 
ATOM      8  N   UNL     1     -33.233   4.538   8.926  1.00  0.00    -0.217 NA
ATOM      9  C   UNL     1     -33.452   6.463   5.720  1.00  0.00    +0.150 A 
ATOM     10  C   UNL     1     -32.235   6.626   7.557  1.00  0.00    +0.168 A 
ATOM     11  C   UNL     1     -32.269   5.349   9.391  1.00  0.00    +0.226 A 
ATOM     12  N   UNL     1     -32.671   7.519   5.504  1.00  0.00    -0.174 NA
ATOM     13  N   UNL     1     -31.912   7.629   6.640  1.00  0.00    -0.215 N 
ATOM     14  N   UNL     1     -31.714   6.405   8.782  1.00  0.00    -0.216 NA
BRANCH  13  15
ATOM     15  C   UNL     1     -30.949   8.681   6.744  1.00  0.00    +0.067 A 
ATOM     16  C   UNL     1     -31.385  10.017   6.681  1.00  0.00    +0.028 A 
ATOM     17  C   UNL     1     -29.582   8.425   6.907  1.00  0.00    +0.028 A 
ATOM     18  C   UNL     1     -30.473  11.069   6.779  1.00  0.00    +0.002 A 
ATOM     19  C   UNL     1     -28.672   9.484   7.006  1.00  0.00    +0.002 A 
ATOM     20  C   UNL     1     -29.117  10.803   6.942  1.00  0.00    +0.000 A 
ENDBRANCH  13  15
ENDBRANCH   1   6
TORSDOF 3
ENDMDL
