REMARK SMILES Cc1nc(S)c2cnn(-c3ccccc3)c2n1
REMARK SMILES IDX 1 1 2 2 3 3 4 4 6 5 7 6 8 7 9 8 16 9 17 10 5 11 10 13 11 14
REMARK SMILES IDX 15 15 12 16 14 17 13 18
REMARK H PARENT 5 12
ROOT
ATOM      1  C   UNL     1      -3.317  -1.875   0.584  1.00  0.00    +0.090 C 
ATOM      2  C   UNL     1      -2.622  -0.591   0.245  1.00  0.00    +0.129 A 
ATOM      3  N   UNL     1      -3.407   0.476  -0.008  1.00  0.00    -0.226 NA
ATOM      4  C   UNL     1      -2.813   1.638  -0.341  1.00  0.00    +0.108 A 
ATOM      5  C   UNL     1      -1.430   1.717  -0.424  1.00  0.00    +0.071 A 
ATOM      6  C   UNL     1      -0.451   2.675  -0.721  1.00  0.00    +0.149 A 
ATOM      7  N   UNL     1       0.788   2.191  -0.650  1.00  0.00    -0.174 NA
ATOM      8  N   UNL     1       0.629   0.875  -0.299  1.00  0.00    -0.215 N 
ATOM      9  C   UNL     1      -0.722   0.557  -0.152  1.00  0.00    +0.167 A 
ATOM     10  N   UNL     1      -1.279  -0.626   0.184  1.00  0.00    -0.213 NA
ENDROOT
BRANCH   4  11
ATOM     11  S   UNL     1      -3.821   3.041  -0.667  1.00  0.00    -0.123 SA
ATOM     12  H   UNL     1      -4.974   2.395  -0.446  1.00  0.00    +0.110 HD
ENDBRANCH   4  11
BRANCH   8  13
ATOM     13  C   UNL     1       1.782   0.046  -0.135  1.00  0.00    +0.067 A 
ATOM     14  C   UNL     1       1.682  -1.304   0.223  1.00  0.00    +0.028 A 
ATOM     15  C   UNL     1       3.058   0.600  -0.340  1.00  0.00    +0.028 A 
ATOM     16  C   UNL     1       2.836  -2.082   0.373  1.00  0.00    +0.002 A 
ATOM     17  C   UNL     1       4.206  -0.181  -0.189  1.00  0.00    +0.002 A 
ATOM     18  C   UNL     1       4.095  -1.522   0.168  1.00  0.00    +0.000 A 
ENDBRANCH   8  13
TORSDOF 2
