MODEL 1
REMARK VINA RESULT:    -9.525      0.000      0.000
REMARK INTER + INTRA:         -11.884
REMARK INTER:                 -11.196
REMARK INTRA:                  -0.688
REMARK UNBOUND:                -0.688
REMARK SMILES Cc1ccccc1Nc1ncnc2c1cnn2-c1ccccc1
REMARK SMILES IDX 8 1 7 3 2 4 3 5 6 6 4 7 5 8 1 9 9 10 14 11 10 12 15 13 13 14
REMARK SMILES IDX 11 15 16 16 17 17 12 18 18 19 19 20 23 21 20 22 22 23 21 24
REMARK H PARENT 8 2
ROOT
ATOM      1  N   UNL     1     -30.943   7.704   6.905  1.00  0.00    -0.339 N 
ATOM      2  H   UNL     1     -30.245   7.190   7.440  1.00  0.00    +0.168 HD
ENDROOT
BRANCH   1   3
ATOM      3  C   UNL     1     -30.801   9.094   7.128  1.00  0.00    +0.043 A 
ATOM      4  C   UNL     1     -29.542   9.699   6.932  1.00  0.00    -0.028 A 
ATOM      5  C   UNL     1     -29.379  11.067   7.208  1.00  0.00    +0.005 A 
ATOM      6  C   UNL     1     -31.851   9.868   7.645  1.00  0.00    +0.026 A 
ATOM      7  C   UNL     1     -30.443  11.826   7.691  1.00  0.00    +0.000 A 
ATOM      8  C   UNL     1     -31.678  11.227   7.914  1.00  0.00    +0.002 A 
ATOM      9  C   UNL     1     -28.373   8.907   6.413  1.00  0.00    +0.046 C 
ENDBRANCH   1   3
BRANCH   1  10
ATOM     10  C   UNL     1     -32.125   6.951   6.964  1.00  0.00    +0.144 A 
ATOM     11  C   UNL     1     -32.540   6.196   8.068  1.00  0.00    +0.082 A 
ATOM     12  N   UNL     1     -32.943   7.008   5.887  1.00  0.00    -0.218 NA
ATOM     13  C   UNL     1     -32.066   5.907   9.357  1.00  0.00    +0.150 A 
ATOM     14  C   UNL     1     -33.749   5.521   7.978  1.00  0.00    +0.168 A 
ATOM     15  C   UNL     1     -34.091   6.309   5.914  1.00  0.00    +0.226 A 
ATOM     16  N   UNL     1     -32.873   5.098  10.042  1.00  0.00    -0.174 NA
ATOM     17  N   UNL     1     -33.920   4.854   9.192  1.00  0.00    -0.215 N 
ATOM     18  N   UNL     1     -34.566   5.540   6.903  1.00  0.00    -0.216 NA
BRANCH  17  19
ATOM     19  C   UNL     1     -34.989   4.006   9.621  1.00  0.00    +0.067 A 
ATOM     20  C   UNL     1     -34.987   2.626   9.383  1.00  0.00    +0.028 A 
ATOM     21  C   UNL     1     -36.080   4.573  10.305  1.00  0.00    +0.028 A 
ATOM     22  C   UNL     1     -36.053   1.832   9.820  1.00  0.00    +0.002 A 
ATOM     23  C   UNL     1     -37.141   3.775  10.739  1.00  0.00    +0.002 A 
ATOM     24  C   UNL     1     -37.127   2.404  10.497  1.00  0.00    +0.000 A 
ENDBRANCH  17  19
ENDBRANCH   1  10
TORSDOF 3
ENDMDL
MODEL 2
REMARK VINA RESULT:    -9.412      5.510      7.385
REMARK INTER + INTRA:         -11.750
REMARK INTER:                 -11.908
REMARK INTRA:                   0.158
REMARK UNBOUND:                -0.688
REMARK SMILES Cc1ccccc1Nc1ncnc2c1cnn2-c1ccccc1
REMARK SMILES IDX 8 1 7 3 2 4 3 5 6 6 4 7 5 8 1 9 9 10 14 11 10 12 15 13 13 14
REMARK SMILES IDX 11 15 16 16 17 17 12 18 18 19 19 20 23 21 20 22 22 23 21 24
REMARK H PARENT 8 2
ROOT
ATOM      1  N   UNL     1     -28.192   9.052   6.600  1.00  0.00    -0.339 N 
ATOM      2  H   UNL     1     -28.766   8.514   5.953  1.00  0.00    +0.168 HD
ENDROOT
BRANCH   1   3
ATOM      3  C   UNL     1     -28.041  10.379   6.128  1.00  0.00    +0.043 A 
ATOM      4  C   UNL     1     -29.083  11.307   6.332  1.00  0.00    -0.028 A 
ATOM      5  C   UNL     1     -28.965  12.607   5.816  1.00  0.00    +0.005 A 
ATOM      6  C   UNL     1     -26.929  10.766   5.365  1.00  0.00    +0.026 A 
ATOM      7  C   UNL     1     -27.837  12.984   5.088  1.00  0.00    +0.000 A 
ATOM      8  C   UNL     1     -26.821  12.063   4.859  1.00  0.00    +0.002 A 
ATOM      9  C   UNL     1     -30.314  10.932   7.113  1.00  0.00    +0.046 C 
ENDBRANCH   1   3
BRANCH   1  10
ATOM     10  C   UNL     1     -27.181   8.190   7.049  1.00  0.00    +0.144 A 
ATOM     11  C   UNL     1     -27.398   7.002   7.757  1.00  0.00    +0.082 A 
ATOM     12  N   UNL     1     -25.908   8.515   6.722  1.00  0.00    -0.218 NA
ATOM     13  C   UNL     1     -28.496   6.275   8.241  1.00  0.00    +0.150 A 
ATOM     14  C   UNL     1     -26.290   6.246   8.114  1.00  0.00    +0.168 A 
ATOM     15  C   UNL     1     -24.915   7.705   7.125  1.00  0.00    +0.226 A 
ATOM     16  N   UNL     1     -28.144   5.159   8.880  1.00  0.00    -0.174 NA
ATOM     17  N   UNL     1     -26.776   5.134   8.805  1.00  0.00    -0.215 N 
ATOM     18  N   UNL     1     -25.011   6.566   7.825  1.00  0.00    -0.216 NA
BRANCH  17  19
ATOM     19  C   UNL     1     -26.061   4.048   9.398  1.00  0.00    +0.067 A 
ATOM     20  C   UNL     1     -26.405   2.711   9.163  1.00  0.00    +0.028 A 
ATOM     21  C   UNL     1     -24.974   4.327  10.247  1.00  0.00    +0.028 A 
ATOM     22  C   UNL     1     -25.678   1.678   9.763  1.00  0.00    +0.002 A 
ATOM     23  C   UNL     1     -24.251   3.291  10.844  1.00  0.00    +0.002 A 
ATOM     24  C   UNL     1     -24.603   1.967  10.601  1.00  0.00    +0.000 A 
ENDBRANCH  17  19
ENDBRANCH   1  10
TORSDOF 3
ENDMDL
MODEL 3
REMARK VINA RESULT:    -9.234      1.286      7.377
REMARK INTER + INTRA:         -11.542
REMARK INTER:                 -10.815
REMARK INTRA:                  -0.727
REMARK UNBOUND:                -0.688
REMARK SMILES Cc1ccccc1Nc1ncnc2c1cnn2-c1ccccc1
REMARK SMILES IDX 8 1 7 3 2 4 3 5 6 6 4 7 5 8 1 9 9 10 14 11 10 12 15 13 13 14
REMARK SMILES IDX 11 15 16 16 17 17 12 18 18 19 19 20 23 21 20 22 22 23 21 24
REMARK H PARENT 8 2
ROOT
ATOM      1  N   UNL     1     -34.540   4.546   7.295  1.00  0.00    -0.339 N 
ATOM      2  H   UNL     1     -35.042   4.055   6.556  1.00  0.00    +0.168 HD
ENDROOT
BRANCH   1   3
ATOM      3  C   UNL     1     -35.341   4.622   8.459  1.00  0.00    +0.043 A 
ATOM      4  C   UNL     1     -35.579   3.453   9.211  1.00  0.00    -0.028 A 
ATOM      5  C   UNL     1     -36.420   3.509  10.334  1.00  0.00    +0.005 A 
ATOM      6  C   UNL     1     -35.997   5.808   8.826  1.00  0.00    +0.026 A 
ATOM      7  C   UNL     1     -37.036   4.703  10.702  1.00  0.00    +0.000 A 
ATOM      8  C   UNL     1     -36.829   5.852   9.946  1.00  0.00    +0.002 A 
ATOM      9  C   UNL     1     -34.929   2.147   8.841  1.00  0.00    +0.046 C 
ENDBRANCH   1   3
BRANCH   1  10
ATOM     10  C   UNL     1     -33.843   5.593   6.674  1.00  0.00    +0.144 A 
ATOM     11  C   UNL     1     -32.747   6.265   7.230  1.00  0.00    +0.082 A 
ATOM     12  N   UNL     1     -34.233   5.935   5.424  1.00  0.00    -0.218 NA
ATOM     13  C   UNL     1     -31.997   6.212   8.415  1.00  0.00    +0.150 A 
ATOM     14  C   UNL     1     -32.150   7.268   6.480  1.00  0.00    +0.168 A 
ATOM     15  C   UNL     1     -33.578   6.925   4.795  1.00  0.00    +0.226 A 
ATOM     16  N   UNL     1     -31.014   7.112   8.453  1.00  0.00    -0.174 NA
ATOM     17  N   UNL     1     -31.103   7.771   7.255  1.00  0.00    -0.215 N 
ATOM     18  N   UNL     1     -32.541   7.645   5.244  1.00  0.00    -0.216 NA
BRANCH  17  19
ATOM     19  C   UNL     1     -30.177   8.820   6.961  1.00  0.00    +0.067 A 
ATOM     20  C   UNL     1     -28.824   8.569   6.701  1.00  0.00    +0.028 A 
ATOM     21  C   UNL     1     -30.636  10.149   6.930  1.00  0.00    +0.028 A 
ATOM     22  C   UNL     1     -27.951   9.624   6.417  1.00  0.00    +0.002 A 
ATOM     23  C   UNL     1     -29.760  11.200   6.645  1.00  0.00    +0.002 A 
ATOM     24  C   UNL     1     -28.417  10.937   6.388  1.00  0.00    +0.000 A 
ENDBRANCH  17  19
ENDBRANCH   1  10
TORSDOF 3
ENDMDL
MODEL 4
REMARK VINA RESULT:    -9.191      1.311      7.593
REMARK INTER + INTRA:         -11.492
REMARK INTER:                 -10.977
REMARK INTRA:                  -0.515
REMARK UNBOUND:                -0.688
REMARK SMILES Cc1ccccc1Nc1ncnc2c1cnn2-c1ccccc1
REMARK SMILES IDX 8 1 7 3 2 4 3 5 6 6 4 7 5 8 1 9 9 10 14 11 10 12 15 13 13 14
REMARK SMILES IDX 11 15 16 16 17 17 12 18 18 19 19 20 23 21 20 22 22 23 21 24
REMARK H PARENT 8 2
ROOT
ATOM      1  N   UNL     1     -34.823   4.349   8.479  1.00  0.00    -0.339 N 
ATOM      2  H   UNL     1     -35.097   4.407   7.499  1.00  0.00    +0.168 HD
ENDROOT
BRANCH   1   3
ATOM      3  C   UNL     1     -35.924   4.663   9.311  1.00  0.00    +0.043 A 
ATOM      4  C   UNL     1     -36.406   3.692  10.214  1.00  0.00    -0.028 A 
ATOM      5  C   UNL     1     -37.534   3.975  11.001  1.00  0.00    +0.005 A 
ATOM      6  C   UNL     1     -36.620   5.875   9.186  1.00  0.00    +0.026 A 
ATOM      7  C   UNL     1     -38.193   5.198  10.885  1.00  0.00    +0.000 A 
ATOM      8  C   UNL     1     -37.739   6.146   9.975  1.00  0.00    +0.002 A 
ATOM      9  C   UNL     1     -35.718   2.362  10.362  1.00  0.00    +0.046 C 
ENDBRANCH   1   3
BRANCH   1  10
ATOM     10  C   UNL     1     -33.522   4.867   8.560  1.00  0.00    +0.144 A 
ATOM     11  C   UNL     1     -33.102   6.072   7.983  1.00  0.00    +0.082 A 
ATOM     12  N   UNL     1     -32.629   4.167   9.298  1.00  0.00    -0.218 NA
ATOM     13  C   UNL     1     -33.670   7.103   7.219  1.00  0.00    +0.150 A 
ATOM     14  C   UNL     1     -31.783   6.458   8.172  1.00  0.00    +0.168 A 
ATOM     15  C   UNL     1     -31.376   4.640   9.408  1.00  0.00    +0.226 A 
ATOM     16  N   UNL     1     -32.800   8.065   6.912  1.00  0.00    -0.174 NA
ATOM     17  N   UNL     1     -31.626   7.672   7.500  1.00  0.00    -0.215 N 
ATOM     18  N   UNL     1     -30.868   5.761   8.878  1.00  0.00    -0.216 NA
BRANCH  17  19
ATOM     19  C   UNL     1     -30.464   8.494   7.366  1.00  0.00    +0.067 A 
ATOM     20  C   UNL     1     -29.168   7.966   7.420  1.00  0.00    +0.028 A 
ATOM     21  C   UNL     1     -30.624   9.878   7.173  1.00  0.00    +0.028 A 
ATOM     22  C   UNL     1     -28.057   8.805   7.284  1.00  0.00    +0.002 A 
ATOM     23  C   UNL     1     -29.510  10.711   7.038  1.00  0.00    +0.002 A 
ATOM     24  C   UNL     1     -28.227  10.175   7.093  1.00  0.00    +0.000 A 
ENDBRANCH  17  19
ENDBRANCH   1  10
TORSDOF 3
ENDMDL
MODEL 5
REMARK VINA RESULT:    -9.183      6.889     10.191
REMARK INTER + INTRA:         -11.482
REMARK INTER:                 -10.968
REMARK INTRA:                  -0.514
REMARK UNBOUND:                -0.688
REMARK SMILES Cc1ccccc1Nc1ncnc2c1cnn2-c1ccccc1
REMARK SMILES IDX 8 1 7 3 2 4 3 5 6 6 4 7 5 8 1 9 9 10 14 11 10 12 15 13 13 14
REMARK SMILES IDX 11 15 16 16 17 17 12 18 18 19 19 20 23 21 20 22 22 23 21 24
REMARK H PARENT 8 2
ROOT
ATOM      1  N   UNL     1     -25.547   2.249  11.316  1.00  0.00    -0.339 N 
ATOM      2  H   UNL     1     -25.297   2.809  12.129  1.00  0.00    +0.168 HD
ENDROOT
BRANCH   1   3
ATOM      3  C   UNL     1     -24.433   1.486  10.890  1.00  0.00    +0.043 A 
ATOM      4  C   UNL     1     -24.597   0.108  10.636  1.00  0.00    -0.028 A 
ATOM      5  C   UNL     1     -23.484  -0.667  10.271  1.00  0.00    +0.005 A 
ATOM      6  C   UNL     1     -23.145   2.038  10.821  1.00  0.00    +0.026 A 
ATOM      7  C   UNL     1     -22.218  -0.093  10.176  1.00  0.00    +0.000 A 
ATOM      8  C   UNL     1     -22.047   1.259  10.455  1.00  0.00    +0.002 A 
ATOM      9  C   UNL     1     -25.950  -0.543  10.731  1.00  0.00    +0.046 C 
ENDBRANCH   1   3
BRANCH   1  10
ATOM     10  C   UNL     1     -26.382   3.047  10.521  1.00  0.00    +0.144 A 
ATOM     11  C   UNL     1     -25.972   4.191   9.825  1.00  0.00    +0.082 A 
ATOM     12  N   UNL     1     -27.667   2.643  10.383  1.00  0.00    -0.218 NA
ATOM     13  C   UNL     1     -24.783   4.913   9.638  1.00  0.00    +0.150 A 
ATOM     14  C   UNL     1     -26.916   4.863   9.063  1.00  0.00    +0.168 A 
ATOM     15  C   UNL     1     -28.492   3.378   9.618  1.00  0.00    +0.226 A 
ATOM     16  N   UNL     1     -24.936   5.976   8.848  1.00  0.00    -0.174 NA
ATOM     17  N   UNL     1     -26.258   5.951   8.487  1.00  0.00    -0.215 N 
ATOM     18  N   UNL     1     -28.209   4.495   8.935  1.00  0.00    -0.216 NA
BRANCH  17  19
ATOM     19  C   UNL     1     -26.769   6.970   7.623  1.00  0.00    +0.067 A 
ATOM     20  C   UNL     1     -28.018   7.567   7.833  1.00  0.00    +0.028 A 
ATOM     21  C   UNL     1     -25.995   7.388   6.526  1.00  0.00    +0.028 A 
ATOM     22  C   UNL     1     -28.481   8.561   6.965  1.00  0.00    +0.002 A 
ATOM     23  C   UNL     1     -26.462   8.382   5.662  1.00  0.00    +0.002 A 
ATOM     24  C   UNL     1     -27.705   8.968   5.882  1.00  0.00    +0.000 A 
ENDBRANCH  17  19
ENDBRANCH   1  10
TORSDOF 3
ENDMDL
MODEL 6
REMARK VINA RESULT:    -7.846      7.570      8.944
REMARK INTER + INTRA:          -9.910
REMARK INTER:                  -9.249
REMARK INTRA:                  -0.661
REMARK UNBOUND:                -0.688
REMARK SMILES Cc1ccccc1Nc1ncnc2c1cnn2-c1ccccc1
REMARK SMILES IDX 8 1 7 3 2 4 3 5 6 6 4 7 5 8 1 9 9 10 14 11 10 12 15 13 13 14
REMARK SMILES IDX 11 15 16 16 17 17 12 18 18 19 19 20 23 21 20 22 22 23 21 24
REMARK H PARENT 8 2
ROOT
ATOM      1  N   UNL     1     -26.040   2.374  11.573  1.00  0.00    -0.339 N 
ATOM      2  H   UNL     1     -26.125   2.909  12.436  1.00  0.00    +0.168 HD
ENDROOT
BRANCH   1   3
ATOM      3  C   UNL     1     -26.303   3.204  10.457  1.00  0.00    +0.043 A 
ATOM      4  C   UNL     1     -25.279   4.037   9.960  1.00  0.00    -0.028 A 
ATOM      5  C   UNL     1     -25.549   4.907   8.891  1.00  0.00    +0.005 A 
ATOM      6  C   UNL     1     -27.587   3.305   9.900  1.00  0.00    +0.026 A 
ATOM      7  C   UNL     1     -26.823   4.968   8.330  1.00  0.00    +0.000 A 
ATOM      8  C   UNL     1     -27.843   4.171   8.836  1.00  0.00    +0.002 A 
ATOM      9  C   UNL     1     -23.893   3.995  10.545  1.00  0.00    +0.046 C 
ENDBRANCH   1   3
BRANCH   1  10
ATOM     10  C   UNL     1     -26.582   1.107  11.835  1.00  0.00    +0.144 A 
ATOM     11  C   UNL     1     -27.649   0.856  12.707  1.00  0.00    +0.082 A 
ATOM     12  N   UNL     1     -26.061   0.063  11.148  1.00  0.00    -0.218 NA
ATOM     13  C   UNL     1     -28.494   1.601  13.544  1.00  0.00    +0.150 A 
ATOM     14  C   UNL     1     -28.084  -0.454  12.843  1.00  0.00    +0.168 A 
ATOM     15  C   UNL     1     -26.565  -1.164  11.364  1.00  0.00    +0.226 A 
ATOM     16  N   UNL     1     -29.385   0.850  14.190  1.00  0.00    -0.174 NA
ATOM     17  N   UNL     1     -29.137  -0.427  13.760  1.00  0.00    -0.215 N 
ATOM     18  N   UNL     1     -27.560  -1.513  12.190  1.00  0.00    -0.216 NA
BRANCH  17  19
ATOM     19  C   UNL     1     -29.931  -1.505  14.264  1.00  0.00    +0.067 A 
ATOM     20  C   UNL     1     -29.931  -1.860  15.619  1.00  0.00    +0.028 A 
ATOM     21  C   UNL     1     -30.740  -2.233  13.374  1.00  0.00    +0.028 A 
ATOM     22  C   UNL     1     -30.723  -2.920  16.071  1.00  0.00    +0.002 A 
ATOM     23  C   UNL     1     -31.530  -3.291  13.831  1.00  0.00    +0.002 A 
ATOM     24  C   UNL     1     -31.521  -3.634  15.180  1.00  0.00    +0.000 A 
ENDBRANCH  17  19
ENDBRANCH   1  10
TORSDOF 3
ENDMDL
MODEL 7
REMARK VINA RESULT:    -7.802      5.042      8.817
REMARK INTER + INTRA:          -9.858
REMARK INTER:                  -9.544
REMARK INTRA:                  -0.314
REMARK UNBOUND:                -0.688
REMARK SMILES Cc1ccccc1Nc1ncnc2c1cnn2-c1ccccc1
REMARK SMILES IDX 8 1 7 3 2 4 3 5 6 6 4 7 5 8 1 9 9 10 14 11 10 12 15 13 13 14
REMARK SMILES IDX 11 15 16 16 17 17 12 18 18 19 19 20 23 21 20 22 22 23 21 24
REMARK H PARENT 8 2
ROOT
ATOM      1  N   UNL     1     -31.691  -0.075  12.412  1.00  0.00    -0.339 N 
ATOM      2  H   UNL     1     -32.689  -0.043  12.617  1.00  0.00    +0.168 HD
ENDROOT
BRANCH   1   3
ATOM      3  C   UNL     1     -30.959  -0.324  13.597  1.00  0.00    +0.043 A 
ATOM      4  C   UNL     1     -30.780  -1.654  14.032  1.00  0.00    -0.028 A 
ATOM      5  C   UNL     1     -30.105  -1.905  15.238  1.00  0.00    +0.005 A 
ATOM      6  C   UNL     1     -30.499   0.722  14.412  1.00  0.00    +0.026 A 
ATOM      7  C   UNL     1     -29.627  -0.853  16.017  1.00  0.00    +0.000 A 
ATOM      8  C   UNL     1     -29.827   0.460  15.607  1.00  0.00    +0.002 A 
ATOM      9  C   UNL     1     -31.285  -2.812  13.214  1.00  0.00    +0.046 C 
ENDBRANCH   1   3
BRANCH   1  10
ATOM     10  C   UNL     1     -31.448   0.923  11.457  1.00  0.00    +0.144 A 
ATOM     11  C   UNL     1     -32.422   1.776  10.924  1.00  0.00    +0.082 A 
ATOM     12  N   UNL     1     -30.163   1.100  11.069  1.00  0.00    -0.218 NA
ATOM     13  C   UNL     1     -33.802   1.985  11.070  1.00  0.00    +0.150 A 
ATOM     14  C   UNL     1     -32.017   2.729  10.000  1.00  0.00    +0.168 A 
ATOM     15  C   UNL     1     -29.892   2.056  10.164  1.00  0.00    +0.226 A 
ATOM     16  N   UNL     1     -34.267   2.966  10.296  1.00  0.00    -0.174 NA
ATOM     17  N   UNL     1     -33.165   3.432   9.629  1.00  0.00    -0.215 N 
ATOM     18  N   UNL     1     -30.747   2.903   9.576  1.00  0.00    -0.216 NA
BRANCH  17  19
ATOM     19  C   UNL     1     -33.311   4.509   8.700  1.00  0.00    +0.067 A 
ATOM     20  C   UNL     1     -34.426   4.623   7.860  1.00  0.00    +0.028 A 
ATOM     21  C   UNL     1     -32.305   5.489   8.625  1.00  0.00    +0.028 A 
ATOM     22  C   UNL     1     -34.530   5.693   6.965  1.00  0.00    +0.002 A 
ATOM     23  C   UNL     1     -32.414   6.556   7.729  1.00  0.00    +0.002 A 
ATOM     24  C   UNL     1     -33.527   6.657   6.900  1.00  0.00    +0.000 A 
ENDBRANCH  17  19
ENDBRANCH   1  10
TORSDOF 3
ENDMDL
MODEL 8
REMARK VINA RESULT:    -7.603      6.422     10.434
REMARK INTER + INTRA:          -9.624
REMARK INTER:                  -9.571
REMARK INTRA:                  -0.053
REMARK UNBOUND:                -0.688
REMARK SMILES Cc1ccccc1Nc1ncnc2c1cnn2-c1ccccc1
REMARK SMILES IDX 8 1 7 3 2 4 3 5 6 6 4 7 5 8 1 9 9 10 14 11 10 12 15 13 13 14
REMARK SMILES IDX 11 15 16 16 17 17 12 18 18 19 19 20 23 21 20 22 22 23 21 24
REMARK H PARENT 8 2
ROOT
ATOM      1  N   UNL     1     -31.187  -0.436  12.256  1.00  0.00    -0.339 N 
ATOM      2  H   UNL     1     -32.205  -0.417  12.259  1.00  0.00    +0.168 HD
ENDROOT
BRANCH   1   3
ATOM      3  C   UNL     1     -30.703  -0.819  13.530  1.00  0.00    +0.043 A 
ATOM      4  C   UNL     1     -30.661  -2.187  13.870  1.00  0.00    -0.028 A 
ATOM      5  C   UNL     1     -30.238  -2.571  15.153  1.00  0.00    +0.005 A 
ATOM      6  C   UNL     1     -30.366   0.132  14.506  1.00  0.00    +0.026 A 
ATOM      7  C   UNL     1     -29.877  -1.613  16.098  1.00  0.00    +0.000 A 
ATOM      8  C   UNL     1     -29.945  -0.262  15.777  1.00  0.00    +0.002 A 
ATOM      9  C   UNL     1     -31.044  -3.246  12.872  1.00  0.00    +0.046 C 
ENDBRANCH   1   3
BRANCH   1  10
ATOM     10  C   UNL     1     -30.769   0.657  11.482  1.00  0.00    +0.144 A 
ATOM     11  C   UNL     1     -29.443   1.090  11.356  1.00  0.00    +0.082 A 
ATOM     12  N   UNL     1     -31.721   1.301  10.768  1.00  0.00    -0.218 NA
ATOM     13  C   UNL     1     -28.183   0.708  11.842  1.00  0.00    +0.150 A 
ATOM     14  C   UNL     1     -29.189   2.178  10.534  1.00  0.00    +0.168 A 
ATOM     15  C   UNL     1     -31.355   2.346  10.005  1.00  0.00    +0.226 A 
ATOM     16  N   UNL     1     -27.195   1.487  11.402  1.00  0.00    -0.174 NA
ATOM     17  N   UNL     1     -27.812   2.402  10.589  1.00  0.00    -0.215 N 
ATOM     18  N   UNL     1     -30.127   2.854   9.836  1.00  0.00    -0.216 NA
BRANCH  17  19
ATOM     19  C   UNL     1     -27.028   3.405   9.939  1.00  0.00    +0.067 A 
ATOM     20  C   UNL     1     -25.778   3.806  10.428  1.00  0.00    +0.028 A 
ATOM     21  C   UNL     1     -27.523   4.010   8.770  1.00  0.00    +0.028 A 
ATOM     22  C   UNL     1     -25.041   4.790   9.760  1.00  0.00    +0.002 A 
ATOM     23  C   UNL     1     -26.783   4.992   8.107  1.00  0.00    +0.002 A 
ATOM     24  C   UNL     1     -25.542   5.382   8.603  1.00  0.00    +0.000 A 
ENDBRANCH  17  19
ENDBRANCH   1  10
TORSDOF 3
ENDMDL
MODEL 9
REMARK VINA RESULT:    -7.556      6.337      8.436
REMARK INTER + INTRA:          -9.569
REMARK INTER:                  -9.177
REMARK INTRA:                  -0.392
REMARK UNBOUND:                -0.688
REMARK SMILES Cc1ccccc1Nc1ncnc2c1cnn2-c1ccccc1
REMARK SMILES IDX 8 1 7 3 2 4 3 5 6 6 4 7 5 8 1 9 9 10 14 11 10 12 15 13 13 14
REMARK SMILES IDX 11 15 16 16 17 17 12 18 18 19 19 20 23 21 20 22 22 23 21 24
REMARK H PARENT 8 2
ROOT
ATOM      1  N   UNL     1     -26.894   0.833  13.053  1.00  0.00    -0.339 N 
ATOM      2  H   UNL     1     -26.635   1.592  13.682  1.00  0.00    +0.168 HD
ENDROOT
BRANCH   1   3
ATOM      3  C   UNL     1     -26.081   0.863  11.895  1.00  0.00    +0.043 A 
ATOM      4  C   UNL     1     -25.601   2.101  11.420  1.00  0.00    -0.028 A 
ATOM      5  C   UNL     1     -24.843   2.144  10.238  1.00  0.00    +0.005 A 
ATOM      6  C   UNL     1     -25.829  -0.295  11.142  1.00  0.00    +0.026 A 
ATOM      7  C   UNL     1     -24.577   0.979   9.521  1.00  0.00    +0.000 A 
ATOM      8  C   UNL     1     -25.073  -0.240   9.970  1.00  0.00    +0.002 A 
ATOM      9  C   UNL     1     -25.872   3.377  12.170  1.00  0.00    +0.046 C 
ENDBRANCH   1   3
BRANCH   1  10
ATOM     10  C   UNL     1     -28.291   0.728  13.108  1.00  0.00    +0.144 A 
ATOM     11  C   UNL     1     -29.169   1.199  12.123  1.00  0.00    +0.082 A 
ATOM     12  N   UNL     1     -28.816   0.075  14.171  1.00  0.00    -0.218 NA
ATOM     13  C   UNL     1     -29.074   1.853  10.885  1.00  0.00    +0.150 A 
ATOM     14  C   UNL     1     -30.528   1.000  12.314  1.00  0.00    +0.168 A 
ATOM     15  C   UNL     1     -30.152  -0.055  14.249  1.00  0.00    +0.226 A 
ATOM     16  N   UNL     1     -30.262   2.086  10.325  1.00  0.00    -0.174 NA
ATOM     17  N   UNL     1     -31.169   1.559  11.207  1.00  0.00    -0.215 N 
ATOM     18  N   UNL     1     -31.075   0.378  13.380  1.00  0.00    -0.216 NA
BRANCH  17  19
ATOM     19  C   UNL     1     -32.565   1.637  10.908  1.00  0.00    +0.067 A 
ATOM     20  C   UNL     1     -33.541   1.671  11.912  1.00  0.00    +0.028 A 
ATOM     21  C   UNL     1     -32.975   1.684   9.563  1.00  0.00    +0.028 A 
ATOM     22  C   UNL     1     -34.897   1.749  11.576  1.00  0.00    +0.002 A 
ATOM     23  C   UNL     1     -34.331   1.761   9.234  1.00  0.00    +0.002 A 
ATOM     24  C   UNL     1     -35.292   1.794  10.241  1.00  0.00    +0.000 A 
ENDBRANCH  17  19
ENDBRANCH   1  10
TORSDOF 3
ENDMDL
