REMARK SMILES O=Cc1c2ccccc2cc2ccccc12
REMARK SMILES IDX 3 1 4 2 5 3 6 4 7 5 8 6 9 7 10 8 11 9 16 10 15 11 14 12
REMARK SMILES IDX 13 13 12 14 2 15 1 16
REMARK H PARENT
ROOT
ATOM      1  C   UNL     1      -0.078   1.162   0.055  1.00  0.00    +0.030 A 
ATOM      2  C   UNL     1      -1.261   0.383   0.232  1.00  0.00    -0.007 A 
ATOM      3  C   UNL     1      -2.565   0.911   0.431  1.00  0.00    +0.009 A 
ATOM      4  C   UNL     1      -3.680   0.086   0.600  1.00  0.00    +0.001 A 
ATOM      5  C   UNL     1      -3.529  -1.292   0.567  1.00  0.00    +0.001 A 
ATOM      6  C   UNL     1      -2.267  -1.841   0.357  1.00  0.00    +0.009 A 
ATOM      7  C   UNL     1      -1.137  -1.023   0.184  1.00  0.00    -0.017 A 
ATOM      8  C   UNL     1       0.117  -1.606  -0.042  1.00  0.00    +0.017 A 
ATOM      9  C   UNL     1       1.275  -0.838  -0.225  1.00  0.00    -0.017 A 
ATOM     10  C   UNL     1       1.201   0.572  -0.177  1.00  0.00    -0.007 A 
ATOM     11  C   UNL     1       2.417   1.286  -0.343  1.00  0.00    +0.009 A 
ATOM     12  C   UNL     1       3.635   0.638  -0.560  1.00  0.00    +0.001 A 
ATOM     13  C   UNL     1       3.680  -0.747  -0.613  1.00  0.00    +0.001 A 
ATOM     14  C   UNL     1       2.507  -1.479  -0.445  1.00  0.00    +0.009 A 
ENDROOT
BRANCH   1  15
ATOM     15  C   UNL     1      -0.203   2.638   0.160  1.00  0.00    +0.261 C 
ATOM     16  O   UNL     1       0.352   3.421  -0.599  1.00  0.00    -0.298 OA
ENDBRANCH   1  15
TORSDOF 1
