REMARK SMILES c1ccc2c(OC[C@@H]3CO3)cccc2c1
REMARK SMILES IDX 7 1 8 2 9 3 10 4 6 5 5 6 4 7 11 8 3 9 14 10 12 11 2 12 15 13
REMARK SMILES IDX 13 14 1 15
REMARK H PARENT
ROOT
ATOM      1  C   UNL     1       2.312  -1.054  -0.994  1.00  0.00    +0.264 C 
ENDROOT
BRANCH   1   2
ATOM      2  C   UNL     1       2.471  -1.405   0.449  1.00  0.00    +0.181 C 
ATOM      3  C   UNL     1       2.393  -0.356   1.526  1.00  0.00    +0.196 C 
ATOM      4  O   UNL     1       3.651  -0.874   1.068  1.00  0.00    -0.369 OA
ENDBRANCH   1   2
BRANCH   1   5
ATOM      5  O   UNL     1       0.948  -1.249  -1.400  1.00  0.00    -0.490 OA
BRANCH   5   6
ATOM      6  C   UNL     1       0.181  -0.121  -1.223  1.00  0.00    +0.127 A 
ATOM      7  C   UNL     1      -0.867  -0.140  -0.276  1.00  0.00    +0.024 A 
ATOM      8  C   UNL     1       0.406   0.997  -2.031  1.00  0.00    +0.047 A 
ATOM      9  C   UNL     1      -1.166  -1.265   0.520  1.00  0.00    +0.012 A 
ATOM     10  C   UNL     1      -1.650   1.028  -0.114  1.00  0.00    -0.015 A 
ATOM     11  C   UNL     1      -0.373   2.138  -1.867  1.00  0.00    +0.004 A 
ATOM     12  C   UNL     1      -2.199  -1.235   1.459  1.00  0.00    +0.001 A 
ATOM     13  C   UNL     1      -2.684   1.043   0.837  1.00  0.00    +0.009 A 
ATOM     14  C   UNL     1      -1.387   2.156  -0.909  1.00  0.00    +0.009 A 
ATOM     15  C   UNL     1      -2.955  -0.080   1.619  1.00  0.00    +0.001 A 
ENDBRANCH   5   6
ENDBRANCH   1   5
TORSDOF 3
