MODEL 1
REMARK VINA RESULT:    -5.054      0.000      0.000
REMARK INTER + INTRA:          -6.761
REMARK INTER:                  -6.531
REMARK INTRA:                  -0.230
REMARK UNBOUND:                -0.230
REMARK SMILES CC(=O)CCCOC(C)=O
REMARK SMILES IDX 5 1 4 2 2 3 3 4 1 5 6 6 7 7 8 8 10 9 9 10
REMARK H PARENT
ROOT
ATOM      1  C   UNL     1     -30.094  12.030   6.170  1.00  0.00    +0.049 C 
ENDROOT
BRANCH   1   2
ATOM      2  C   UNL     1     -30.328  11.511   7.586  1.00  0.00    +0.079 C 
BRANCH   2   3
ATOM      3  C   UNL     1     -31.432  10.474   7.685  1.00  0.00    +0.129 C 
ATOM      4  O   UNL     1     -32.436  10.636   8.378  1.00  0.00    -0.300 OA
ATOM      5  C   UNL     1     -31.234   9.213   6.885  1.00  0.00    +0.087 C 
ENDBRANCH   2   3
ENDBRANCH   1   2
BRANCH   1   6
ATOM      6  C   UNL     1     -28.617  12.041   5.777  1.00  0.00    +0.233 C 
BRANCH   6   7
ATOM      7  O   UNL     1     -28.036  10.749   6.021  1.00  0.00    -0.466 OA
BRANCH   7   8
ATOM      8  C   UNL     1     -26.968  10.425   5.243  1.00  0.00    +0.302 C 
ATOM      9  O   UNL     1     -26.218  11.220   4.694  1.00  0.00    -0.253 OA
ATOM     10  C   UNL     1     -26.844   8.935   5.140  1.00  0.00    +0.139 C 
ENDBRANCH   7   8
ENDBRANCH   6   7
ENDBRANCH   1   6
TORSDOF 5
ENDMDL
MODEL 2
REMARK VINA RESULT:    -4.976      2.437      4.291
REMARK INTER + INTRA:          -6.660
REMARK INTER:                  -6.305
REMARK INTRA:                  -0.355
REMARK UNBOUND:                -0.230
REMARK SMILES CC(=O)CCCOC(C)=O
REMARK SMILES IDX 5 1 4 2 2 3 3 4 1 5 6 6 7 7 8 8 10 9 9 10
REMARK H PARENT
ROOT
ATOM      1  C   UNL     1     -26.920  10.038   4.899  1.00  0.00    +0.049 C 
ENDROOT
BRANCH   1   2
ATOM      2  C   UNL     1     -26.661  11.416   5.500  1.00  0.00    +0.079 C 
BRANCH   2   3
ATOM      3  C   UNL     1     -27.816  12.386   5.333  1.00  0.00    +0.129 C 
ATOM      4  O   UNL     1     -27.704  13.459   4.742  1.00  0.00    -0.300 OA
ATOM      5  C   UNL     1     -29.130  11.967   5.941  1.00  0.00    +0.087 C 
ENDBRANCH   2   3
ENDBRANCH   1   2
BRANCH   1   6
ATOM      6  C   UNL     1     -26.703   8.903   5.898  1.00  0.00    +0.233 C 
BRANCH   6   7
ATOM      7  O   UNL     1     -27.329   9.227   7.151  1.00  0.00    -0.466 OA
BRANCH   7   8
ATOM      8  C   UNL     1     -28.169   8.281   7.654  1.00  0.00    +0.302 C 
ATOM      9  O   UNL     1     -27.878   7.445   8.497  1.00  0.00    -0.253 OA
ATOM     10  C   UNL     1     -29.518   8.404   7.013  1.00  0.00    +0.139 C 
ENDBRANCH   7   8
ENDBRANCH   6   7
ENDBRANCH   1   6
TORSDOF 5
ENDMDL
MODEL 3
REMARK VINA RESULT:    -4.905      2.233      2.876
REMARK INTER + INTRA:          -6.569
REMARK INTER:                  -6.387
REMARK INTRA:                  -0.182
REMARK UNBOUND:                -0.230
REMARK SMILES CC(=O)CCCOC(C)=O
REMARK SMILES IDX 5 1 4 2 2 3 3 4 1 5 6 6 7 7 8 8 10 9 9 10
REMARK H PARENT
ROOT
ATOM      1  C   UNL     1     -28.984   9.238   6.975  1.00  0.00    +0.049 C 
ENDROOT
BRANCH   1   2
ATOM      2  C   UNL     1     -28.832  10.733   7.241  1.00  0.00    +0.079 C 
BRANCH   2   3
ATOM      3  C   UNL     1     -29.627  11.610   6.290  1.00  0.00    +0.129 C 
ATOM      4  O   UNL     1     -29.096  12.415   5.526  1.00  0.00    -0.300 OA
ATOM      5  C   UNL     1     -31.124  11.449   6.332  1.00  0.00    +0.087 C 
ENDBRANCH   2   3
ENDBRANCH   1   2
BRANCH   1   6
ATOM      6  C   UNL     1     -27.659   8.555   6.640  1.00  0.00    +0.233 C 
BRANCH   6   7
ATOM      7  O   UNL     1     -26.576   9.238   7.294  1.00  0.00    -0.466 OA
BRANCH   7   8
ATOM      8  C   UNL     1     -25.453   9.417   6.547  1.00  0.00    +0.302 C 
ATOM      9  O   UNL     1     -25.173  10.422   5.910  1.00  0.00    -0.253 OA
ATOM     10  C   UNL     1     -24.599   8.187   6.607  1.00  0.00    +0.139 C 
ENDBRANCH   7   8
ENDBRANCH   6   7
ENDBRANCH   1   6
TORSDOF 5
ENDMDL
MODEL 4
REMARK VINA RESULT:    -4.865      3.190      5.101
REMARK INTER + INTRA:          -6.516
REMARK INTER:                  -6.335
REMARK INTRA:                  -0.182
REMARK UNBOUND:                -0.230
REMARK SMILES CC(=O)CCCOC(C)=O
REMARK SMILES IDX 5 1 4 2 2 3 3 4 1 5 6 6 7 7 8 8 10 9 9 10
REMARK H PARENT
ROOT
ATOM      1  C   UNL     1     -28.062   9.718   7.355  1.00  0.00    +0.049 C 
ENDROOT
BRANCH   1   2
ATOM      2  C   UNL     1     -28.126  10.157   5.896  1.00  0.00    +0.079 C 
BRANCH   2   3
ATOM      3  C   UNL     1     -26.781  10.151   5.192  1.00  0.00    +0.129 C 
ATOM      4  O   UNL     1     -26.559   9.477   4.188  1.00  0.00    -0.300 OA
ATOM      5  C   UNL     1     -25.710  11.021   5.798  1.00  0.00    +0.087 C 
ENDBRANCH   2   3
ENDBRANCH   1   2
BRANCH   1   6
ATOM      6  C   UNL     1     -28.207   8.207   7.529  1.00  0.00    +0.233 C 
BRANCH   6   7
ATOM      7  O   UNL     1     -26.908   7.594   7.592  1.00  0.00    -0.466 OA
BRANCH   7   8
ATOM      8  C   UNL     1     -26.878   6.323   8.078  1.00  0.00    +0.302 C 
ATOM      9  O   UNL     1     -27.738   5.806   8.777  1.00  0.00    -0.253 OA
ATOM     10  C   UNL     1     -25.620   5.638   7.638  1.00  0.00    +0.139 C 
ENDBRANCH   7   8
ENDBRANCH   6   7
ENDBRANCH   1   6
TORSDOF 5
ENDMDL
MODEL 5
REMARK VINA RESULT:    -4.848      2.500      4.358
REMARK INTER + INTRA:          -6.496
REMARK INTER:                  -6.319
REMARK INTRA:                  -0.177
REMARK UNBOUND:                -0.230
REMARK SMILES CC(=O)CCCOC(C)=O
REMARK SMILES IDX 5 1 4 2 2 3 3 4 1 5 6 6 7 7 8 8 10 9 9 10
REMARK H PARENT
ROOT
ATOM      1  C   UNL     1     -27.680   8.836   6.050  1.00  0.00    +0.049 C 
ENDROOT
BRANCH   1   2
ATOM      2  C   UNL     1     -26.435   8.194   6.656  1.00  0.00    +0.079 C 
BRANCH   2   3
ATOM      3  C   UNL     1     -26.736   7.050   7.607  1.00  0.00    +0.129 C 
ATOM      4  O   UNL     1     -27.650   7.092   8.429  1.00  0.00    -0.300 OA
ATOM      5  C   UNL     1     -25.841   5.843   7.499  1.00  0.00    +0.087 C 
ENDBRANCH   2   3
ENDBRANCH   1   2
BRANCH   1   6
ATOM      6  C   UNL     1     -27.934  10.249   6.571  1.00  0.00    +0.233 C 
BRANCH   6   7
ATOM      7  O   UNL     1     -27.515  11.216   5.593  1.00  0.00    -0.466 OA
BRANCH   7   8
ATOM      8  C   UNL     1     -28.323  12.301   5.451  1.00  0.00    +0.302 C 
ATOM      9  O   UNL     1     -28.048  13.318   4.829  1.00  0.00    -0.253 OA
ATOM     10  C   UNL     1     -29.612  12.078   6.182  1.00  0.00    +0.139 C 
ENDBRANCH   7   8
ENDBRANCH   6   7
ENDBRANCH   1   6
TORSDOF 5
ENDMDL
MODEL 6
REMARK VINA RESULT:    -4.781      1.597      5.162
REMARK INTER + INTRA:          -6.408
REMARK INTER:                  -6.176
REMARK INTRA:                  -0.232
REMARK UNBOUND:                -0.230
REMARK SMILES CC(=O)CCCOC(C)=O
REMARK SMILES IDX 5 1 4 2 2 3 3 4 1 5 6 6 7 7 8 8 10 9 9 10
REMARK H PARENT
ROOT
ATOM      1  C   UNL     1     -28.493   8.647   7.139  1.00  0.00    +0.049 C 
ENDROOT
BRANCH   1   2
ATOM      2  C   UNL     1     -27.983   9.720   6.181  1.00  0.00    +0.079 C 
BRANCH   2   3
ATOM      3  C   UNL     1     -26.705   9.341   5.458  1.00  0.00    +0.129 C 
ATOM      4  O   UNL     1     -26.588   9.405   4.235  1.00  0.00    -0.300 OA
ATOM      5  C   UNL     1     -25.566   8.867   6.323  1.00  0.00    +0.087 C 
ENDBRANCH   2   3
ENDBRANCH   1   2
BRANCH   1   6
ATOM      6  C   UNL     1     -30.017   8.617   7.244  1.00  0.00    +0.233 C 
BRANCH   6   7
ATOM      7  O   UNL     1     -30.567   9.841   6.729  1.00  0.00    -0.466 OA
BRANCH   7   8
ATOM      8  C   UNL     1     -31.227  10.618   7.630  1.00  0.00    +0.302 C 
ATOM      9  O   UNL     1     -32.222  10.289   8.262  1.00  0.00    -0.253 OA
ATOM     10  C   UNL     1     -30.563  11.956   7.735  1.00  0.00    +0.139 C 
ENDBRANCH   7   8
ENDBRANCH   6   7
ENDBRANCH   1   6
TORSDOF 5
ENDMDL
MODEL 7
REMARK VINA RESULT:    -4.748      1.867      2.434
REMARK INTER + INTRA:          -6.366
REMARK INTER:                  -6.203
REMARK INTRA:                  -0.162
REMARK UNBOUND:                -0.230
REMARK SMILES CC(=O)CCCOC(C)=O
REMARK SMILES IDX 5 1 4 2 2 3 3 4 1 5 6 6 7 7 8 8 10 9 9 10
REMARK H PARENT
ROOT
ATOM      1  C   UNL     1     -29.019   9.576   6.707  1.00  0.00    +0.049 C 
ENDROOT
BRANCH   1   2
ATOM      2  C   UNL     1     -30.429   9.300   7.219  1.00  0.00    +0.079 C 
BRANCH   2   3
ATOM      3  C   UNL     1     -31.178  10.544   7.658  1.00  0.00    +0.129 C 
ATOM      4  O   UNL     1     -32.234  10.498   8.288  1.00  0.00    -0.300 OA
ATOM      5  C   UNL     1     -30.560  11.863   7.274  1.00  0.00    +0.087 C 
ENDBRANCH   2   3
ENDBRANCH   1   2
BRANCH   1   6
ATOM      6  C   UNL     1     -27.974   8.632   7.300  1.00  0.00    +0.233 C 
BRANCH   6   7
ATOM      7  O   UNL     1     -26.754   9.348   7.552  1.00  0.00    -0.466 OA
BRANCH   7   8
ATOM      8  C   UNL     1     -25.689   8.990   6.784  1.00  0.00    +0.302 C 
ATOM      9  O   UNL     1     -25.014   9.749   6.103  1.00  0.00    -0.253 OA
ATOM     10  C   UNL     1     -25.461   7.512   6.884  1.00  0.00    +0.139 C 
ENDBRANCH   7   8
ENDBRANCH   6   7
ENDBRANCH   1   6
TORSDOF 5
ENDMDL
MODEL 8
REMARK VINA RESULT:    -4.695      2.707      4.254
REMARK INTER + INTRA:          -6.298
REMARK INTER:                  -5.978
REMARK INTRA:                  -0.320
REMARK UNBOUND:                -0.230
REMARK SMILES CC(=O)CCCOC(C)=O
REMARK SMILES IDX 5 1 4 2 2 3 3 4 1 5 6 6 7 7 8 8 10 9 9 10
REMARK H PARENT
ROOT
ATOM      1  C   UNL     1     -25.711  10.244   6.278  1.00  0.00    +0.049 C 
ENDROOT
BRANCH   1   2
ATOM      2  C   UNL     1     -26.747  10.748   5.278  1.00  0.00    +0.079 C 
BRANCH   2   3
ATOM      3  C   UNL     1     -28.052  11.189   5.915  1.00  0.00    +0.129 C 
ATOM      4  O   UNL     1     -28.645  10.512   6.754  1.00  0.00    -0.300 OA
ATOM      5  C   UNL     1     -28.600  12.516   5.457  1.00  0.00    +0.087 C 
ENDBRANCH   2   3
ENDBRANCH   1   2
BRANCH   1   6
ATOM      6  C   UNL     1     -25.368   8.767   6.087  1.00  0.00    +0.233 C 
BRANCH   6   7
ATOM      7  O   UNL     1     -26.561   7.971   6.175  1.00  0.00    -0.466 OA
BRANCH   7   8
ATOM      8  C   UNL     1     -26.702   7.243   7.316  1.00  0.00    +0.302 C 
ATOM      9  O   UNL     1     -27.499   7.473   8.214  1.00  0.00    -0.253 OA
ATOM     10  C   UNL     1     -25.724   6.108   7.322  1.00  0.00    +0.139 C 
ENDBRANCH   7   8
ENDBRANCH   6   7
ENDBRANCH   1   6
TORSDOF 5
ENDMDL
MODEL 9
REMARK VINA RESULT:    -4.590      8.368      9.826
REMARK INTER + INTRA:          -6.161
REMARK INTER:                  -5.742
REMARK INTRA:                  -0.420
REMARK UNBOUND:                -0.230
REMARK SMILES CC(=O)CCCOC(C)=O
REMARK SMILES IDX 5 1 4 2 2 3 3 4 1 5 6 6 7 7 8 8 10 9 9 10
REMARK H PARENT
ROOT
ATOM      1  C   UNL     1     -24.021   2.545  10.874  1.00  0.00    +0.049 C 
ENDROOT
BRANCH   1   2
ATOM      2  C   UNL     1     -24.801   1.237  10.970  1.00  0.00    +0.079 C 
BRANCH   2   3
ATOM      3  C   UNL     1     -25.918   1.113   9.951  1.00  0.00    +0.129 C 
ATOM      4  O   UNL     1     -25.731   1.230   8.741  1.00  0.00    -0.300 OA
ATOM      5  C   UNL     1     -27.294   0.839  10.501  1.00  0.00    +0.087 C 
ENDBRANCH   2   3
ENDBRANCH   1   2
BRANCH   1   6
ATOM      6  C   UNL     1     -24.891   3.777  11.122  1.00  0.00    +0.233 C 
BRANCH   6   7
ATOM      7  O   UNL     1     -24.780   4.686  10.014  1.00  0.00    -0.466 OA
BRANCH   7   8
ATOM      8  C   UNL     1     -25.911   4.862   9.279  1.00  0.00    +0.302 C 
ATOM      9  O   UNL     1     -27.029   4.472   9.586  1.00  0.00    -0.253 OA
ATOM     10  C   UNL     1     -25.590   5.603   8.017  1.00  0.00    +0.139 C 
ENDBRANCH   7   8
ENDBRANCH   6   7
ENDBRANCH   1   6
TORSDOF 5
ENDMDL
