REMARK SMILES CCCCCCNC(=O)CI
REMARK SMILES IDX 5 1 4 2 3 3 2 4 1 5 6 6 7 7 8 8 9 9 10 11 11 12
REMARK H PARENT 7 10
ROOT
ATOM      1  C   UNL     1       0.198  -0.243  -1.722  1.00  0.00    +0.021 C 
ENDROOT
BRANCH   1   2
ATOM      2  C   UNL     1       1.025   0.412  -0.608  1.00  0.00    +0.002 C 
BRANCH   2   3
ATOM      3  C   UNL     1       1.528  -0.579   0.445  1.00  0.00    -0.000 C 
BRANCH   3   4
ATOM      4  C   UNL     1       2.378   0.077   1.536  1.00  0.00    -0.003 C 
ATOM      5  C   UNL     1       3.708   0.616   1.033  1.00  0.00    +0.004 C 
ENDBRANCH   3   4
ENDBRANCH   2   3
ENDBRANCH   1   2
BRANCH   1   6
ATOM      6  C   UNL     1      -1.069  -0.964  -1.267  1.00  0.00    +0.116 C 
BRANCH   6   7
ATOM      7  N   UNL     1      -2.025  -0.075  -0.639  1.00  0.00    -0.355 N 
ATOM      8  C   UNL     1      -3.320  -0.505  -0.408  1.00  0.00    +0.229 C 
ATOM      9  O   UNL     1      -3.766  -1.567  -0.832  1.00  0.00    -0.274 OA
ATOM     10  H   UNL     1      -1.666   0.611   0.015  1.00  0.00    +0.163 HD
BRANCH   8  11
ATOM     11  C   UNL     1      -4.162   0.465   0.398  1.00  0.00    +0.175 C 
ATOM     12  I   UNL     1      -3.613   0.298   2.436  1.00  0.00    -0.076 I 
ENDBRANCH   8  11
ENDBRANCH   6   7
ENDBRANCH   1   6
TORSDOF 6
