REMARK SMILES Cn1ncc2c(O)nc(S)nc21
REMARK SMILES IDX 1 1 2 2 3 3 4 4 5 5 6 6 8 7 9 8 11 9 12 10 10 11 7 13
REMARK H PARENT 10 12 7 14
ROOT
ATOM      1  C   UNL     1       2.620   1.303  -0.361  1.00  0.00    +0.176 C 
ATOM      2  N   UNL     1       1.675   0.215  -0.392  1.00  0.00    -0.250 N 
ATOM      3  N   UNL     1       2.077  -1.006  -0.820  1.00  0.00    -0.179 NA
ATOM      4  C   UNL     1       0.968  -1.750  -0.717  1.00  0.00    +0.151 A 
ATOM      5  C   UNL     1      -0.129  -1.019  -0.232  1.00  0.00    +0.101 A 
ATOM      6  C   UNL     1      -1.462  -1.211   0.075  1.00  0.00    +0.226 A 
ATOM      7  N   UNL     1      -2.222  -0.210   0.540  1.00  0.00    -0.187 NA
ATOM      8  C   UNL     1      -1.625   0.993   0.695  1.00  0.00    +0.189 A 
ATOM      9  N   UNL     1      -0.341   1.310   0.434  1.00  0.00    -0.203 NA
ATOM     10  C   UNL     1       0.357   0.258  -0.028  1.00  0.00    +0.166 A 
ENDROOT
BRANCH   8  11
ATOM     11  S   UNL     1      -2.659   2.293   1.312  1.00  0.00    -0.103 SA
ATOM     12  H   UNL     1      -3.741   1.512   1.398  1.00  0.00    +0.111 HD
ENDBRANCH   8  11
BRANCH   6  13
ATOM     13  O   UNL     1      -2.096  -2.410  -0.069  1.00  0.00    -0.493 OA
ATOM     14  H   UNL     1      -2.995  -2.187   0.230  1.00  0.00    +0.295 HD
ENDBRANCH   6  13
TORSDOF 2
