MODEL 1
REMARK VINA RESULT:    -5.581      0.000      0.000
REMARK INTER + INTRA:          -7.556
REMARK INTER:                  -7.213
REMARK INTRA:                  -0.343
REMARK UNBOUND:                -0.343
REMARK SMILES CC(C)CN(CC(C)C)N=O
REMARK SMILES IDX 5 1 4 2 2 3 1 4 3 5 6 6 7 7 8 8 9 9 10 10 11 11
REMARK H PARENT
ROOT
ATOM      1  N   UNL     1     -28.882   8.873   7.602  1.00  0.00    -0.260 N 
ENDROOT
BRANCH   1   2
ATOM      2  C   UNL     1     -28.461  10.256   7.265  1.00  0.00    +0.144 C 
BRANCH   2   3
ATOM      3  C   UNL     1     -29.565  11.129   6.616  1.00  0.00    +0.004 C 
ATOM      4  C   UNL     1     -30.438  11.755   7.707  1.00  0.00    +0.009 C 
ATOM      5  C   UNL     1     -28.976  12.232   5.731  1.00  0.00    +0.009 C 
ENDBRANCH   2   3
ENDBRANCH   1   2
BRANCH   1   6
ATOM      6  C   UNL     1     -29.817   8.389   6.558  1.00  0.00    +0.144 C 
BRANCH   6   7
ATOM      7  C   UNL     1     -31.260   8.108   7.054  1.00  0.00    +0.004 C 
ATOM      8  C   UNL     1     -32.169   7.850   5.845  1.00  0.00    +0.009 C 
ATOM      9  C   UNL     1     -31.373   6.927   8.020  1.00  0.00    +0.009 C 
ENDBRANCH   6   7
ENDBRANCH   1   6
BRANCH   1  10
ATOM     10  N   UNL     1     -27.849   8.069   7.750  1.00  0.00    +0.052 NA
ATOM     11  O   UNL     1     -28.004   7.353   8.744  1.00  0.00    -0.125 OA
ENDBRANCH   1  10
TORSDOF 5
ENDMDL
MODEL 2
REMARK VINA RESULT:    -5.508      3.112      4.915
REMARK INTER + INTRA:          -7.461
REMARK INTER:                  -7.311
REMARK INTRA:                  -0.150
REMARK UNBOUND:                -0.343
REMARK SMILES CC(C)CN(CC(C)C)N=O
REMARK SMILES IDX 5 1 4 2 2 3 1 4 3 5 6 6 7 7 8 8 9 9 10 10 11 11
REMARK H PARENT
ROOT
ATOM      1  N   UNL     1     -27.708   9.033   5.864  1.00  0.00    -0.260 N 
ENDROOT
BRANCH   1   2
ATOM      2  C   UNL     1     -27.172   8.273   7.021  1.00  0.00    +0.144 C 
BRANCH   2   3
ATOM      3  C   UNL     1     -25.952   7.375   6.698  1.00  0.00    +0.004 C 
ATOM      4  C   UNL     1     -24.657   8.120   7.033  1.00  0.00    +0.009 C 
ATOM      5  C   UNL     1     -25.998   6.049   7.464  1.00  0.00    +0.009 C 
ENDBRANCH   2   3
ENDBRANCH   1   2
BRANCH   1   6
ATOM      6  C   UNL     1     -27.599  10.484   6.152  1.00  0.00    +0.144 C 
BRANCH   6   7
ATOM      7  C   UNL     1     -28.918  11.284   5.984  1.00  0.00    +0.004 C 
ATOM      8  C   UNL     1     -29.670  11.307   7.321  1.00  0.00    +0.009 C 
ATOM      9  C   UNL     1     -28.722  12.722   5.500  1.00  0.00    +0.009 C 
ENDBRANCH   6   7
ENDBRANCH   1   6
BRANCH   1  10
ATOM     10  N   UNL     1     -27.103   8.707   4.741  1.00  0.00    +0.052 NA
ATOM     11  O   UNL     1     -26.546   9.697   4.254  1.00  0.00    -0.125 OA
ENDBRANCH   1  10
TORSDOF 5
ENDMDL
MODEL 3
REMARK VINA RESULT:    -5.242      1.794      3.573
REMARK INTER + INTRA:          -7.118
REMARK INTER:                  -6.644
REMARK INTRA:                  -0.473
REMARK UNBOUND:                -0.343
REMARK SMILES CC(C)CN(CC(C)C)N=O
REMARK SMILES IDX 5 1 4 2 2 3 1 4 3 5 6 6 7 7 8 8 9 9 10 10 11 11
REMARK H PARENT
ROOT
ATOM      1  N   UNL     1     -28.549   8.893   6.871  1.00  0.00    -0.260 N 
ENDROOT
BRANCH   1   2
ATOM      2  C   UNL     1     -29.678   9.809   6.565  1.00  0.00    +0.144 C 
BRANCH   2   3
ATOM      3  C   UNL     1     -29.468  11.272   7.027  1.00  0.00    +0.004 C 
ATOM      4  C   UNL     1     -29.345  12.188   5.805  1.00  0.00    +0.009 C 
ATOM      5  C   UNL     1     -30.611  11.759   7.922  1.00  0.00    +0.009 C 
ENDBRANCH   2   3
ENDBRANCH   1   2
BRANCH   1   6
ATOM      6  C   UNL     1     -27.377   9.701   7.288  1.00  0.00    +0.144 C 
BRANCH   6   7
ATOM      7  C   UNL     1     -26.202   9.716   6.276  1.00  0.00    +0.004 C 
ATOM      8  C   UNL     1     -26.562   8.840   5.069  1.00  0.00    +0.009 C 
ATOM      9  C   UNL     1     -25.818  11.112   5.779  1.00  0.00    +0.009 C 
ENDBRANCH   6   7
ENDBRANCH   1   6
BRANCH   1  10
ATOM     10  N   UNL     1     -28.877   7.996   7.778  1.00  0.00    +0.052 NA
ATOM     11  O   UNL     1     -27.861   7.532   8.305  1.00  0.00    -0.125 OA
ENDBRANCH   1  10
TORSDOF 5
ENDMDL
MODEL 4
REMARK VINA RESULT:    -5.223      8.600      9.852
REMARK INTER + INTRA:          -7.093
REMARK INTER:                  -6.493
REMARK INTRA:                  -0.600
REMARK UNBOUND:                -0.343
REMARK SMILES CC(C)CN(CC(C)C)N=O
REMARK SMILES IDX 5 1 4 2 2 3 1 4 3 5 6 6 7 7 8 8 9 9 10 10 11 11
REMARK H PARENT
ROOT
ATOM      1  N   UNL     1     -25.393   1.599   9.982  1.00  0.00    -0.260 N 
ENDROOT
BRANCH   1   2
ATOM      2  C   UNL     1     -26.574   2.343  10.488  1.00  0.00    +0.144 C 
BRANCH   2   3
ATOM      3  C   UNL     1     -26.297   3.819  10.867  1.00  0.00    +0.004 C 
ATOM      4  C   UNL     1     -25.889   3.907  12.340  1.00  0.00    +0.009 C 
ATOM      5  C   UNL     1     -25.204   4.439   9.991  1.00  0.00    +0.009 C 
ENDBRANCH   2   3
ENDBRANCH   1   2
BRANCH   1   6
ATOM      6  C   UNL     1     -24.945   0.644  11.025  1.00  0.00    +0.144 C 
BRANCH   6   7
ATOM      7  C   UNL     1     -23.429   0.697  11.350  1.00  0.00    +0.004 C 
ATOM      8  C   UNL     1     -22.712  -0.434  10.601  1.00  0.00    +0.009 C 
ATOM      9  C   UNL     1     -22.758   2.027  11.001  1.00  0.00    +0.009 C 
ENDBRANCH   6   7
ENDBRANCH   1   6
BRANCH   1  10
ATOM     10  N   UNL     1     -25.646   0.995   8.839  1.00  0.00    +0.052 NA
ATOM     11  O   UNL     1     -26.159  -0.109   9.044  1.00  0.00    -0.125 OA
ENDBRANCH   1  10
TORSDOF 5
ENDMDL
MODEL 5
REMARK VINA RESULT:    -5.170      8.758     10.224
REMARK INTER + INTRA:          -7.024
REMARK INTER:                  -6.519
REMARK INTRA:                  -0.505
REMARK UNBOUND:                -0.343
REMARK SMILES CC(C)CN(CC(C)C)N=O
REMARK SMILES IDX 5 1 4 2 2 3 1 4 3 5 6 6 7 7 8 8 9 9 10 10 11 11
REMARK H PARENT
ROOT
ATOM      1  N   UNL     1     -25.433   1.579   9.906  1.00  0.00    -0.260 N 
ENDROOT
BRANCH   1   2
ATOM      2  C   UNL     1     -26.469   2.473  10.482  1.00  0.00    +0.144 C 
BRANCH   2   3
ATOM      3  C   UNL     1     -26.485   2.534  12.030  1.00  0.00    +0.004 C 
ATOM      4  C   UNL     1     -26.062   3.929  12.497  1.00  0.00    +0.009 C 
ATOM      5  C   UNL     1     -27.865   2.195  12.602  1.00  0.00    +0.009 C 
ENDBRANCH   2   3
ENDBRANCH   1   2
BRANCH   1   6
ATOM      6  C   UNL     1     -24.990   0.624  10.950  1.00  0.00    +0.144 C 
BRANCH   6   7
ATOM      7  C   UNL     1     -23.486   0.713  11.321  1.00  0.00    +0.004 C 
ATOM      8  C   UNL     1     -22.726  -0.426  10.628  1.00  0.00    +0.009 C 
ATOM      9  C   UNL     1     -22.827   2.044  10.954  1.00  0.00    +0.009 C 
ENDBRANCH   6   7
ENDBRANCH   1   6
BRANCH   1  10
ATOM     10  N   UNL     1     -25.863   0.962   8.825  1.00  0.00    +0.052 NA
ATOM     11  O   UNL     1     -26.049  -0.235   9.063  1.00  0.00    -0.125 OA
ENDBRANCH   1  10
TORSDOF 5
ENDMDL
MODEL 6
REMARK VINA RESULT:    -4.973      6.898      8.151
REMARK INTER + INTRA:          -6.769
REMARK INTER:                  -6.302
REMARK INTRA:                  -0.467
REMARK UNBOUND:                -0.343
REMARK SMILES CC(C)CN(CC(C)C)N=O
REMARK SMILES IDX 5 1 4 2 2 3 1 4 3 5 6 6 7 7 8 8 9 9 10 10 11 11
REMARK H PARENT
ROOT
ATOM      1  N   UNL     1     -26.546   2.253   9.624  1.00  0.00    -0.260 N 
ENDROOT
BRANCH   1   2
ATOM      2  C   UNL     1     -26.765   3.551   8.936  1.00  0.00    +0.144 C 
BRANCH   2   3
ATOM      3  C   UNL     1     -25.939   4.733   9.504  1.00  0.00    +0.004 C 
ATOM      4  C   UNL     1     -24.792   4.196  10.365  1.00  0.00    +0.009 C 
ATOM      5  C   UNL     1     -25.376   5.624   8.393  1.00  0.00    +0.009 C 
ENDBRANCH   2   3
ENDBRANCH   1   2
BRANCH   1   6
ATOM      6  C   UNL     1     -27.798   1.863  10.318  1.00  0.00    +0.144 C 
BRANCH   6   7
ATOM      7  C   UNL     1     -27.782   2.066  11.856  1.00  0.00    +0.004 C 
ATOM      8  C   UNL     1     -28.979   1.335  12.476  1.00  0.00    +0.009 C 
ATOM      9  C   UNL     1     -26.499   1.587  12.539  1.00  0.00    +0.009 C 
ENDBRANCH   6   7
ENDBRANCH   1   6
BRANCH   1  10
ATOM     10  N   UNL     1     -26.133   1.320   8.791  1.00  0.00    +0.052 NA
ATOM     11  O   UNL     1     -26.531   0.211   9.162  1.00  0.00    -0.125 OA
ENDBRANCH   1  10
TORSDOF 5
ENDMDL
MODEL 7
REMARK VINA RESULT:    -4.847      6.128      7.554
REMARK INTER + INTRA:          -6.607
REMARK INTER:                  -6.055
REMARK INTRA:                  -0.552
REMARK UNBOUND:                -0.343
REMARK SMILES CC(C)CN(CC(C)C)N=O
REMARK SMILES IDX 5 1 4 2 2 3 1 4 3 5 6 6 7 7 8 8 9 9 10 10 11 11
REMARK H PARENT
ROOT
ATOM      1  N   UNL     1     -35.959   5.051   8.826  1.00  0.00    -0.260 N 
ENDROOT
BRANCH   1   2
ATOM      2  C   UNL     1     -34.712   4.713   8.093  1.00  0.00    +0.144 C 
BRANCH   2   3
ATOM      3  C   UNL     1     -34.028   5.911   7.389  1.00  0.00    +0.004 C 
ATOM      4  C   UNL     1     -32.591   6.058   7.897  1.00  0.00    +0.009 C 
ATOM      5  C   UNL     1     -34.023   5.752   5.866  1.00  0.00    +0.009 C 
ENDBRANCH   2   3
ENDBRANCH   1   2
BRANCH   1   6
ATOM      6  C   UNL     1     -35.853   4.537  10.213  1.00  0.00    +0.144 C 
BRANCH   6   7
ATOM      7  C   UNL     1     -34.404   4.281  10.705  1.00  0.00    +0.004 C 
ATOM      8  C   UNL     1     -34.075   5.257  11.841  1.00  0.00    +0.009 C 
ATOM      9  C   UNL     1     -34.149   2.852  11.189  1.00  0.00    +0.009 C 
ENDBRANCH   6   7
ENDBRANCH   1   6
BRANCH   1  10
ATOM     10  N   UNL     1     -36.207   6.344   8.798  1.00  0.00    +0.052 NA
ATOM     11  O   UNL     1     -36.956   6.655   9.730  1.00  0.00    -0.125 OA
ENDBRANCH   1  10
TORSDOF 5
ENDMDL
MODEL 8
REMARK VINA RESULT:    -4.810      7.926      9.365
REMARK INTER + INTRA:          -6.560
REMARK INTER:                  -6.003
REMARK INTRA:                  -0.557
REMARK UNBOUND:                -0.343
REMARK SMILES CC(C)CN(CC(C)C)N=O
REMARK SMILES IDX 5 1 4 2 2 3 1 4 3 5 6 6 7 7 8 8 9 9 10 10 11 11
REMARK H PARENT
ROOT
ATOM      1  N   UNL     1     -25.186   3.441  10.643  1.00  0.00    -0.260 N 
ENDROOT
BRANCH   1   2
ATOM      2  C   UNL     1     -23.882   2.857  11.047  1.00  0.00    +0.144 C 
BRANCH   2   3
ATOM      3  C   UNL     1     -23.357   1.736  10.115  1.00  0.00    +0.004 C 
ATOM      4  C   UNL     1     -22.033   1.190  10.657  1.00  0.00    +0.009 C 
ATOM      5  C   UNL     1     -24.366   0.593   9.971  1.00  0.00    +0.009 C 
ENDBRANCH   2   3
ENDBRANCH   1   2
BRANCH   1   6
ATOM      6  C   UNL     1     -25.996   3.690  11.860  1.00  0.00    +0.144 C 
BRANCH   6   7
ATOM      7  C   UNL     1     -27.216   2.747  12.036  1.00  0.00    +0.004 C 
ATOM      8  C   UNL     1     -27.909   2.558  10.681  1.00  0.00    +0.009 C 
ATOM      9  C   UNL     1     -26.868   1.372  12.612  1.00  0.00    +0.009 C 
ENDBRANCH   6   7
ENDBRANCH   1   6
BRANCH   1  10
ATOM     10  N   UNL     1     -25.031   4.533   9.923  1.00  0.00    +0.052 NA
ATOM     11  O   UNL     1     -25.379   4.326   8.756  1.00  0.00    -0.125 OA
ENDBRANCH   1  10
TORSDOF 5
ENDMDL
MODEL 9
REMARK VINA RESULT:    -4.635      8.331     10.003
REMARK INTER + INTRA:          -6.332
REMARK INTER:                  -5.654
REMARK INTRA:                  -0.678
REMARK UNBOUND:                -0.343
REMARK SMILES CC(C)CN(CC(C)C)N=O
REMARK SMILES IDX 5 1 4 2 2 3 1 4 3 5 6 6 7 7 8 8 9 9 10 10 11 11
REMARK H PARENT
ROOT
ATOM      1  N   UNL     1     -24.224   1.688  10.180  1.00  0.00    -0.260 N 
ENDROOT
BRANCH   1   2
ATOM      2  C   UNL     1     -24.613   0.561  11.067  1.00  0.00    +0.144 C 
BRANCH   2   3
ATOM      3  C   UNL     1     -26.027  -0.013  10.803  1.00  0.00    +0.004 C 
ATOM      4  C   UNL     1     -26.894   0.152  12.054  1.00  0.00    +0.009 C 
ATOM      5  C   UNL     1     -26.707   0.665   9.611  1.00  0.00    +0.009 C 
ENDBRANCH   2   3
ENDBRANCH   1   2
BRANCH   1   6
ATOM      6  C   UNL     1     -23.887   2.863  11.019  1.00  0.00    +0.144 C 
BRANCH   6   7
ATOM      7  C   UNL     1     -24.951   3.992  11.019  1.00  0.00    +0.004 C 
ATOM      8  C   UNL     1     -25.533   4.138   9.607  1.00  0.00    +0.009 C 
ATOM      9  C   UNL     1     -26.098   3.775  12.008  1.00  0.00    +0.009 C 
ENDBRANCH   6   7
ENDBRANCH   1   6
BRANCH   1  10
ATOM     10  N   UNL     1     -23.236   1.358   9.374  1.00  0.00    +0.052 NA
ATOM     11  O   UNL     1     -22.155   1.451   9.964  1.00  0.00    -0.125 OA
ENDBRANCH   1  10
TORSDOF 5
ENDMDL
