REMARK SMILES c1ccc(Nc2ncnc3c2cnn3-c2ccccc2)cc1
REMARK SMILES IDX 6 1 11 2 12 3 13 4 14 5 10 6 9 7 8 8 7 9 5 10 4 12 3 13
REMARK SMILES IDX 21 14 2 15 22 16 1 17 15 18 16 19 20 20 17 21 19 22 18 23
REMARK H PARENT 5 11
ROOT
ATOM      1  C   UNL     1      -1.144  -1.745   0.109  1.00  0.00    +0.144 A 
ATOM      2  C   UNL     1      -0.249  -0.720  -0.225  1.00  0.00    +0.082 A 
ATOM      3  C   UNL     1      -0.304   0.538  -0.844  1.00  0.00    +0.150 A 
ATOM      4  N   UNL     1       0.883   1.137  -0.918  1.00  0.00    -0.174 NA
ATOM      5  N   UNL     1       1.757   0.246  -0.351  1.00  0.00    -0.215 N 
ATOM      6  C   UNL     1       1.093  -0.906   0.074  1.00  0.00    +0.168 A 
ATOM      7  N   UNL     1       1.609  -2.009   0.658  1.00  0.00    -0.216 NA
ATOM      8  C   UNL     1       0.676  -2.938   0.909  1.00  0.00    +0.226 A 
ATOM      9  N   UNL     1      -0.644  -2.873   0.664  1.00  0.00    -0.218 NA
ENDROOT
BRANCH   1  10
ATOM     10  N   UNL     1      -2.524  -1.720  -0.143  1.00  0.00    -0.340 N 
ATOM     11  H   UNL     1      -2.900  -2.606   0.191  1.00  0.00    +0.168 HD
BRANCH  10  12
ATOM     12  C   UNL     1      -3.433  -0.671   0.109  1.00  0.00    +0.040 A 
ATOM     13  C   UNL     1      -3.195   0.338   1.049  1.00  0.00    +0.026 A 
ATOM     14  C   UNL     1      -4.662  -0.681  -0.563  1.00  0.00    +0.026 A 
ATOM     15  C   UNL     1      -4.147   1.335   1.283  1.00  0.00    +0.002 A 
ATOM     16  C   UNL     1      -5.615   0.314  -0.332  1.00  0.00    +0.002 A 
ATOM     17  C   UNL     1      -5.355   1.325   0.589  1.00  0.00    +0.000 A 
ENDBRANCH  10  12
ENDBRANCH   1  10
BRANCH   5  18
ATOM     18  C   UNL     1       3.145   0.579  -0.268  1.00  0.00    +0.067 A 
ATOM     19  C   UNL     1       4.085  -0.286   0.306  1.00  0.00    +0.028 A 
ATOM     20  C   UNL     1       3.583   1.815  -0.777  1.00  0.00    +0.028 A 
ATOM     21  C   UNL     1       5.434   0.079   0.368  1.00  0.00    +0.002 A 
ATOM     22  C   UNL     1       4.932   2.173  -0.712  1.00  0.00    +0.002 A 
ATOM     23  C   UNL     1       5.857   1.305  -0.140  1.00  0.00    +0.000 A 
ENDBRANCH   5  18
TORSDOF 3
