REMARK SMILES CC(=O)O[C@@H](C)C(C)C
REMARK SMILES IDX 5 1 6 2 7 3 8 4 9 5 4 6 2 7 3 8 1 9
REMARK H PARENT
ROOT
ATOM      1  C   UNL     1      -0.080  -0.563   0.025  1.00  0.00    +0.176 C 
ATOM      2  C   UNL     1      -0.410  -0.810   1.496  1.00  0.00    +0.053 C 
ENDROOT
BRANCH   1   3
ATOM      3  C   UNL     1      -1.160   0.234  -0.745  1.00  0.00    +0.023 C 
ATOM      4  C   UNL     1      -1.441   1.614  -0.142  1.00  0.00    +0.011 C 
ATOM      5  C   UNL     1      -2.464  -0.553  -0.886  1.00  0.00    +0.011 C 
ENDBRANCH   1   3
BRANCH   1   6
ATOM      6  O   UNL     1       1.151   0.190  -0.054  1.00  0.00    -0.463 OA
BRANCH   6   7
ATOM      7  C   UNL     1       2.306  -0.527   0.000  1.00  0.00    +0.302 C 
ATOM      8  O   UNL     1       2.390  -1.742   0.110  1.00  0.00    -0.253 OA
ATOM      9  C   UNL     1       3.482   0.396  -0.093  1.00  0.00    +0.139 C 
ENDBRANCH   6   7
ENDBRANCH   1   6
TORSDOF 3
