MODEL 1
REMARK VINA RESULT:    -5.033      0.000      0.000
REMARK INTER + INTRA:          -6.417
REMARK INTER:                  -6.210
REMARK INTRA:                  -0.207
REMARK UNBOUND:                -0.207
REMARK SMILES CCOC(=O)C(C)(C)[Si](C)(C)C
REMARK SMILES IDX 4 1 5 2 3 3 2 4 1 5 6 6 7 7 8 8 9 9 10 10 11 11 12 12
REMARK H PARENT
ROOT
ATOM      1  C   UNL     1     -26.633   3.705   9.823  1.00  0.00    +0.308 C 
ATOM      2  O   UNL     1     -27.856   3.728   9.895  1.00  0.00    -0.252 OA
ENDROOT
BRANCH   1   3
ATOM      3  O   UNL     1     -25.922   4.126   8.741  1.00  0.00    -0.466 OA
BRANCH   3   4
ATOM      4  C   UNL     1     -26.452   5.291   8.098  1.00  0.00    +0.229 C 
ATOM      5  C   UNL     1     -25.307   6.014   7.416  1.00  0.00    +0.049 C 
ENDBRANCH   3   4
ENDBRANCH   1   3
BRANCH   1   6
ATOM      6  C   UNL     1     -25.710   3.253  10.965  1.00  0.00    +0.056 C 
ATOM      7  C   UNL     1     -24.271   3.723  10.656  1.00  0.00    +0.020 C 
ATOM      8  C   UNL     1     -26.135   3.850  12.325  1.00  0.00    +0.020 C 
BRANCH   6   9
ATOM      9 Si   UNL     1     -25.779   1.224  11.033  1.00  0.00    +0.064 Si
ATOM     10  C   UNL     1     -26.822   0.721  12.508  1.00  0.00    -0.009 C 
ATOM     11  C   UNL     1     -24.036   0.562  11.212  1.00  0.00    -0.009 C 
ATOM     12  C   UNL     1     -26.555   0.600   9.443  1.00  0.00    -0.009 C 
ENDBRANCH   6   9
ENDBRANCH   1   6
TORSDOF 4
ENDMDL
MODEL 2
REMARK VINA RESULT:    -4.834      1.663      2.549
REMARK INTER + INTRA:          -6.171
REMARK INTER:                  -5.932
REMARK INTRA:                  -0.239
REMARK UNBOUND:                -0.207
REMARK SMILES CCOC(=O)C(C)(C)[Si](C)(C)C
REMARK SMILES IDX 4 1 5 2 3 3 2 4 1 5 6 6 7 7 8 8 9 9 10 10 11 11 12 12
REMARK H PARENT
ROOT
ATOM      1  C   UNL     1     -26.310   3.094   9.849  1.00  0.00    +0.308 C 
ATOM      2  O   UNL     1     -26.177   2.389   8.857  1.00  0.00    -0.252 OA
ENDROOT
BRANCH   1   3
ATOM      3  O   UNL     1     -26.556   4.434   9.808  1.00  0.00    -0.466 OA
BRANCH   3   4
ATOM      4  C   UNL     1     -25.769   5.152   8.851  1.00  0.00    +0.229 C 
ATOM      5  C   UNL     1     -26.704   6.024   8.034  1.00  0.00    +0.049 C 
ENDBRANCH   3   4
ENDBRANCH   1   3
BRANCH   1   6
ATOM      6  C   UNL     1     -26.278   2.569  11.292  1.00  0.00    +0.056 C 
ATOM      7  C   UNL     1     -25.046   1.652  11.459  1.00  0.00    +0.020 C 
ATOM      8  C   UNL     1     -26.176   3.714  12.323  1.00  0.00    +0.020 C 
BRANCH   6   9
ATOM      9 Si   UNL     1     -27.982   1.503  11.587  1.00  0.00    +0.064 Si
ATOM     10  C   UNL     1     -27.633  -0.291  11.163  1.00  0.00    -0.009 C 
ATOM     11  C   UNL     1     -29.328   2.185  10.478  1.00  0.00    -0.009 C 
ATOM     12  C   UNL     1     -28.478   1.660  13.389  1.00  0.00    -0.009 C 
ENDBRANCH   6   9
ENDBRANCH   1   6
TORSDOF 4
ENDMDL
MODEL 3
REMARK VINA RESULT:    -4.759      7.905      9.051
REMARK INTER + INTRA:          -6.079
REMARK INTER:                  -5.891
REMARK INTRA:                  -0.188
REMARK UNBOUND:                -0.207
REMARK SMILES CCOC(=O)C(C)(C)[Si](C)(C)C
REMARK SMILES IDX 4 1 5 2 3 3 2 4 1 5 6 6 7 7 8 8 9 9 10 10 11 11 12 12
REMARK H PARENT
ROOT
ATOM      1  C   UNL     1     -34.721   5.783   7.413  1.00  0.00    +0.308 C 
ATOM      2  O   UNL     1     -35.055   6.932   7.675  1.00  0.00    -0.252 OA
ENDROOT
BRANCH   1   3
ATOM      3  O   UNL     1     -34.037   5.421   6.292  1.00  0.00    -0.466 OA
BRANCH   3   4
ATOM      4  C   UNL     1     -33.969   6.437   5.284  1.00  0.00    +0.229 C 
ATOM      5  C   UNL     1     -32.541   6.945   5.224  1.00  0.00    +0.049 C 
ENDBRANCH   3   4
ENDBRANCH   1   3
BRANCH   1   6
ATOM      6  C   UNL     1     -34.971   4.580   8.335  1.00  0.00    +0.056 C 
ATOM      7  C   UNL     1     -36.297   4.805   9.095  1.00  0.00    +0.020 C 
ATOM      8  C   UNL     1     -35.082   3.258   7.545  1.00  0.00    +0.020 C 
BRANCH   6   9
ATOM      9 Si   UNL     1     -33.424   4.491   9.648  1.00  0.00    +0.064 Si
ATOM     10  C   UNL     1     -32.104   5.699   9.085  1.00  0.00    -0.009 C 
ATOM     11  C   UNL     1     -32.743   2.746   9.669  1.00  0.00    -0.009 C 
ATOM     12  C   UNL     1     -34.058   4.964  11.349  1.00  0.00    -0.009 C 
ENDBRANCH   6   9
ENDBRANCH   1   6
TORSDOF 4
ENDMDL
MODEL 4
REMARK VINA RESULT:    -4.743      2.298      3.793
REMARK INTER + INTRA:          -6.059
REMARK INTER:                  -5.819
REMARK INTRA:                  -0.240
REMARK UNBOUND:                -0.207
REMARK SMILES CCOC(=O)C(C)(C)[Si](C)(C)C
REMARK SMILES IDX 4 1 5 2 3 3 2 4 1 5 6 6 7 7 8 8 9 9 10 10 11 11 12 12
REMARK H PARENT
ROOT
ATOM      1  C   UNL     1     -25.736   1.571  10.080  1.00  0.00    +0.308 C 
ATOM      2  O   UNL     1     -25.664   1.209   8.912  1.00  0.00    -0.252 OA
ENDROOT
BRANCH   1   3
ATOM      3  O   UNL     1     -24.827   1.244  11.041  1.00  0.00    -0.466 OA
BRANCH   3   4
ATOM      4  C   UNL     1     -23.615   0.669  10.540  1.00  0.00    +0.229 C 
ATOM      5  C   UNL     1     -22.501   1.679  10.731  1.00  0.00    +0.049 C 
ENDBRANCH   3   4
ENDBRANCH   1   3
BRANCH   1   6
ATOM      6  C   UNL     1     -26.831   2.498  10.630  1.00  0.00    +0.056 C 
ATOM      7  C   UNL     1     -26.215   3.400  11.722  1.00  0.00    +0.020 C 
ATOM      8  C   UNL     1     -27.429   3.404   9.531  1.00  0.00    +0.020 C 
BRANCH   6   9
ATOM      9 Si   UNL     1     -28.275   1.319  11.436  1.00  0.00    +0.064 Si
ATOM     10  C   UNL     1     -29.900   1.716  10.587  1.00  0.00    -0.009 C 
ATOM     11  C   UNL     1     -28.396   1.673  13.271  1.00  0.00    -0.009 C 
ATOM     12  C   UNL     1     -27.811  -0.475  11.146  1.00  0.00    -0.009 C 
ENDBRANCH   6   9
ENDBRANCH   1   6
TORSDOF 4
ENDMDL
MODEL 5
REMARK VINA RESULT:    -4.711      8.900     10.023
REMARK INTER + INTRA:          -6.020
REMARK INTER:                  -5.824
REMARK INTRA:                  -0.195
REMARK UNBOUND:                -0.207
REMARK SMILES CCOC(=O)C(C)(C)[Si](C)(C)C
REMARK SMILES IDX 4 1 5 2 3 3 2 4 1 5 6 6 7 7 8 8 9 9 10 10 11 11 12 12
REMARK H PARENT
ROOT
ATOM      1  C   UNL     1     -36.170   4.871   8.944  1.00  0.00    +0.308 C 
ATOM      2  O   UNL     1     -36.719   3.862   9.369  1.00  0.00    -0.252 OA
ENDROOT
BRANCH   1   3
ATOM      3  O   UNL     1     -36.657   6.133   9.105  1.00  0.00    -0.466 OA
BRANCH   3   4
ATOM      4  C   UNL     1     -37.493   6.305  10.256  1.00  0.00    +0.229 C 
ATOM      5  C   UNL     1     -38.934   6.352   9.786  1.00  0.00    +0.049 C 
ENDBRANCH   3   4
ENDBRANCH   1   3
BRANCH   1   6
ATOM      6  C   UNL     1     -34.819   4.876   8.215  1.00  0.00    +0.056 C 
ATOM      7  C   UNL     1     -34.818   3.744   7.163  1.00  0.00    +0.020 C 
ATOM      8  C   UNL     1     -34.556   6.214   7.489  1.00  0.00    +0.020 C 
BRANCH   6   9
ATOM      9 Si   UNL     1     -33.377   4.532   9.605  1.00  0.00    +0.064 Si
ATOM     10  C   UNL     1     -34.068   4.980  11.290  1.00  0.00    -0.009 C 
ATOM     11  C   UNL     1     -31.885   5.593   9.209  1.00  0.00    -0.009 C 
ATOM     12  C   UNL     1     -32.919   2.714   9.551  1.00  0.00    -0.009 C 
ENDBRANCH   6   9
ENDBRANCH   1   6
TORSDOF 4
ENDMDL
MODEL 6
REMARK VINA RESULT:    -4.688      9.067     10.265
REMARK INTER + INTRA:          -5.992
REMARK INTER:                  -5.803
REMARK INTRA:                  -0.189
REMARK UNBOUND:                -0.207
REMARK SMILES CCOC(=O)C(C)(C)[Si](C)(C)C
REMARK SMILES IDX 4 1 5 2 3 3 2 4 1 5 6 6 7 7 8 8 9 9 10 10 11 11 12 12
REMARK H PARENT
ROOT
ATOM      1  C   UNL     1     -35.909   5.601   8.761  1.00  0.00    +0.308 C 
ATOM      2  O   UNL     1     -35.680   6.628   8.134  1.00  0.00    -0.252 OA
ENDROOT
BRANCH   1   3
ATOM      3  O   UNL     1     -36.894   5.477   9.694  1.00  0.00    -0.466 OA
BRANCH   3   4
ATOM      4  C   UNL     1     -38.159   6.021   9.298  1.00  0.00    +0.229 C 
ATOM      5  C   UNL     1     -39.250   5.216   9.976  1.00  0.00    +0.049 C 
ENDBRANCH   3   4
ENDBRANCH   1   3
BRANCH   1   6
ATOM      6  C   UNL     1     -35.159   4.278   8.552  1.00  0.00    +0.056 C 
ATOM      7  C   UNL     1     -36.074   3.113   8.991  1.00  0.00    +0.020 C 
ATOM      8  C   UNL     1     -34.769   4.059   7.074  1.00  0.00    +0.020 C 
BRANCH   6   9
ATOM      9 Si   UNL     1     -33.497   4.332   9.719  1.00  0.00    +0.064 Si
ATOM     10  C   UNL     1     -32.295   5.565   8.974  1.00  0.00    -0.009 C 
ATOM     11  C   UNL     1     -32.731   2.623   9.767  1.00  0.00    -0.009 C 
ATOM     12  C   UNL     1     -33.997   4.872  11.445  1.00  0.00    -0.009 C 
ENDBRANCH   6   9
ENDBRANCH   1   6
TORSDOF 4
ENDMDL
MODEL 7
REMARK VINA RESULT:    -4.617      1.822      2.238
REMARK INTER + INTRA:          -5.904
REMARK INTER:                  -5.724
REMARK INTRA:                  -0.180
REMARK UNBOUND:                -0.207
REMARK SMILES CCOC(=O)C(C)(C)[Si](C)(C)C
REMARK SMILES IDX 4 1 5 2 3 3 2 4 1 5 6 6 7 7 8 8 9 9 10 10 11 11 12 12
REMARK H PARENT
ROOT
ATOM      1  C   UNL     1     -26.395   1.970   9.678  1.00  0.00    +0.308 C 
ATOM      2  O   UNL     1     -26.098   1.323   8.682  1.00  0.00    -0.252 OA
ENDROOT
BRANCH   1   3
ATOM      3  O   UNL     1     -26.879   3.243   9.650  1.00  0.00    -0.466 OA
BRANCH   3   4
ATOM      4  C   UNL     1     -25.953   4.219   9.159  1.00  0.00    +0.229 C 
ATOM      5  C   UNL     1     -26.744   5.315   8.472  1.00  0.00    +0.049 C 
ENDBRANCH   3   4
ENDBRANCH   1   3
BRANCH   1   6
ATOM      6  C   UNL     1     -26.323   1.425  11.113  1.00  0.00    +0.056 C 
ATOM      7  C   UNL     1     -24.838   1.252  11.504  1.00  0.00    +0.020 C 
ATOM      8  C   UNL     1     -26.985   2.380  12.130  1.00  0.00    +0.020 C 
BRANCH   6   9
ATOM      9 Si   UNL     1     -27.259  -0.378  11.125  1.00  0.00    +0.064 Si
ATOM     10  C   UNL     1     -27.693  -0.802  12.900  1.00  0.00    -0.009 C 
ATOM     11  C   UNL     1     -26.104  -1.668  10.411  1.00  0.00    -0.009 C 
ATOM     12  C   UNL     1     -28.816  -0.249  10.087  1.00  0.00    -0.009 C 
ENDBRANCH   6   9
ENDBRANCH   1   6
TORSDOF 4
ENDMDL
MODEL 8
REMARK VINA RESULT:    -4.548      9.398     10.530
REMARK INTER + INTRA:          -5.818
REMARK INTER:                  -5.539
REMARK INTRA:                  -0.279
REMARK UNBOUND:                -0.207
REMARK SMILES CCOC(=O)C(C)(C)[Si](C)(C)C
REMARK SMILES IDX 4 1 5 2 3 3 2 4 1 5 6 6 7 7 8 8 9 9 10 10 11 11 12 12
REMARK H PARENT
ROOT
ATOM      1  C   UNL     1     -36.590   3.947  10.570  1.00  0.00    +0.308 C 
ATOM      2  O   UNL     1     -37.175   2.972  10.115  1.00  0.00    -0.252 OA
ENDROOT
BRANCH   1   3
ATOM      3  O   UNL     1     -37.213   5.026  11.120  1.00  0.00    -0.466 OA
BRANCH   3   4
ATOM      4  C   UNL     1     -38.594   5.160  10.764  1.00  0.00    +0.229 C 
ATOM      5  C   UNL     1     -38.703   6.234   9.699  1.00  0.00    +0.049 C 
ENDBRANCH   3   4
ENDBRANCH   1   3
BRANCH   1   6
ATOM      6  C   UNL     1     -35.062   4.078  10.644  1.00  0.00    +0.056 C 
ATOM      7  C   UNL     1     -34.708   5.207  11.638  1.00  0.00    +0.020 C 
ATOM      8  C   UNL     1     -34.391   2.775  11.130  1.00  0.00    +0.020 C 
BRANCH   6   9
ATOM      9 Si   UNL     1     -34.403   4.560   8.784  1.00  0.00    +0.064 Si
ATOM     10  C   UNL     1     -35.356   6.064   8.195  1.00  0.00    -0.009 C 
ATOM     11  C   UNL     1     -34.703   3.109   7.638  1.00  0.00    -0.009 C 
ATOM     12  C   UNL     1     -32.571   4.947   8.882  1.00  0.00    -0.009 C 
ENDBRANCH   6   9
ENDBRANCH   1   6
TORSDOF 4
ENDMDL
MODEL 9
REMARK VINA RESULT:    -4.458      8.141      9.096
REMARK INTER + INTRA:          -5.708
REMARK INTER:                  -5.494
REMARK INTRA:                  -0.214
REMARK UNBOUND:                -0.207
REMARK SMILES CCOC(=O)C(C)(C)[Si](C)(C)C
REMARK SMILES IDX 4 1 5 2 3 3 2 4 1 5 6 6 7 7 8 8 9 9 10 10 11 11 12 12
REMARK H PARENT
ROOT
ATOM      1  C   UNL     1     -33.444   3.830   9.454  1.00  0.00    +0.308 C 
ATOM      2  O   UNL     1     -32.936   2.827   8.970  1.00  0.00    -0.252 OA
ENDROOT
BRANCH   1   3
ATOM      3  O   UNL     1     -33.186   5.099   9.032  1.00  0.00    -0.466 OA
BRANCH   3   4
ATOM      4  C   UNL     1     -31.796   5.394   8.852  1.00  0.00    +0.229 C 
ATOM      5  C   UNL     1     -31.688   6.705   8.097  1.00  0.00    +0.049 C 
ENDBRANCH   3   4
ENDBRANCH   1   3
BRANCH   1   6
ATOM      6  C   UNL     1     -34.494   3.809  10.575  1.00  0.00    +0.056 C 
ATOM      7  C   UNL     1     -34.427   2.443  11.294  1.00  0.00    +0.020 C 
ATOM      8  C   UNL     1     -34.250   4.921  11.619  1.00  0.00    +0.020 C 
BRANCH   6   9
ATOM      9 Si   UNL     1     -36.315   4.047   9.705  1.00  0.00    +0.064 Si
ATOM     10  C   UNL     1     -37.595   3.194  10.780  1.00  0.00    -0.009 C 
ATOM     11  C   UNL     1     -36.279   3.275   7.999  1.00  0.00    -0.009 C 
ATOM     12  C   UNL     1     -36.683   5.882   9.586  1.00  0.00    -0.009 C 
ENDBRANCH   6   9
ENDBRANCH   1   6
TORSDOF 4
ENDMDL
