MODEL 1
REMARK VINA RESULT:   -11.442      0.000      0.000
REMARK INTER + INTRA:         -11.777
REMARK INTER:                 -11.777
REMARK INTRA:                   0.000
REMARK UNBOUND:                 0.000
REMARK SMILES C[C@@H]1CC[C@]2(OC1)O[C@@H]1C[C@H]3[C@H]4CC[C@@H]5C[C@@H](O)CC[C@]5(C)[C@H]4CC[C@@]3(C)[C@@H]1[C@H]2C
REMARK SMILES IDX 1 1 2 2 3 3 4 4 5 5 6 6 7 7 8 8 9 9 10 10 11 11 12 12 13 13
REMARK SMILES IDX 14 14 15 15 16 16 17 17 19 18 20 19 21 20 22 21 23 22 24 23
REMARK SMILES IDX 25 24 26 25 27 26 28 27 29 28 30 29 18 30
REMARK H PARENT 18 31
ROOT
ATOM      1  C   UNL     1     -32.519   7.941   5.070  1.00  0.00    +0.010 C 
ATOM      2  C   UNL     1     -32.832   6.845   6.082  1.00  0.00    +0.012 C 
ATOM      3  C   UNL     1     -33.448   5.617   5.397  1.00  0.00    +0.011 C 
ATOM      4  C   UNL     1     -34.409   4.865   6.321  1.00  0.00    +0.066 C 
ATOM      5  C   UNL     1     -33.994   5.007   7.786  1.00  0.00    +0.171 C 
ATOM      6  O   UNL     1     -33.965   6.371   8.218  1.00  0.00    -0.349 OA
ATOM      7  C   UNL     1     -33.756   7.341   7.191  1.00  0.00    +0.167 C 
ATOM      8  O   UNL     1     -32.695   4.425   7.959  1.00  0.00    -0.346 OA
ATOM      9  C   UNL     1     -32.557   4.093   9.343  1.00  0.00    +0.126 C 
ATOM     10  C   UNL     1     -31.914   2.716   9.492  1.00  0.00    +0.037 C 
ATOM     11  C   UNL     1     -33.057   1.773   9.898  1.00  0.00    +0.001 C 
ATOM     12  C   UNL     1     -32.656   0.445  10.579  1.00  0.00    -0.004 C 
ATOM     13  C   UNL     1     -31.579  -0.305   9.783  1.00  0.00    +0.004 C 
ATOM     14  C   UNL     1     -31.097  -1.523  10.546  1.00  0.00    +0.004 C 
ATOM     15  C   UNL     1     -30.378  -1.165  11.861  1.00  0.00    -0.002 C 
ATOM     16  C   UNL     1     -30.427  -2.406  12.775  1.00  0.00    +0.036 C 
ATOM     17  C   UNL     1     -29.598  -2.235  14.045  1.00  0.00    +0.114 C 
ATOM     18  C   UNL     1     -29.626  -0.814  14.595  1.00  0.00    +0.032 C 
ATOM     19  C   UNL     1     -30.858  -0.043  14.126  1.00  0.00    +0.010 C 
ATOM     20  C   UNL     1     -30.918   0.138  12.571  1.00  0.00    -0.026 C 
ATOM     21  C   UNL     1     -29.981   1.319  12.225  1.00  0.00    +0.012 C 
ATOM     22  C   UNL     1     -32.402   0.440  12.119  1.00  0.00    -0.001 C 
ATOM     23  C   UNL     1     -33.132   1.565  12.891  1.00  0.00    +0.005 C 
ATOM     24  C   UNL     1     -33.370   2.867  12.138  1.00  0.00    +0.008 C 
ATOM     25  C   UNL     1     -33.989   2.668  10.736  1.00  0.00    -0.024 C 
ATOM     26  C   UNL     1     -35.398   2.072  10.867  1.00  0.00    +0.012 C 
ATOM     27  C   UNL     1     -33.962   4.020   9.964  1.00  0.00    +0.033 C 
ATOM     28  C   UNL     1     -34.872   4.182   8.737  1.00  0.00    +0.052 C 
ATOM     29  C   UNL     1     -36.215   4.831   9.060  1.00  0.00    +0.014 C 
ENDROOT
BRANCH  17  30
ATOM     30  O   UNL     1     -28.248  -2.602  13.773  1.00  0.00    -0.393 OA
ATOM     31  H   UNL     1     -27.791  -1.803  13.456  1.00  0.00    +0.210 HD
ENDBRANCH  17  30
TORSDOF 1
ENDMDL
MODEL 2
REMARK VINA RESULT:   -10.229      2.675      7.694
REMARK INTER + INTRA:         -10.528
REMARK INTER:                 -10.528
REMARK INTRA:                   0.000
REMARK UNBOUND:                 0.000
REMARK SMILES C[C@@H]1CC[C@]2(OC1)O[C@@H]1C[C@H]3[C@H]4CC[C@@H]5C[C@@H](O)CC[C@]5(C)[C@H]4CC[C@@]3(C)[C@@H]1[C@H]2C
REMARK SMILES IDX 1 1 2 2 3 3 4 4 5 5 6 6 7 7 8 8 9 9 10 10 11 11 12 12 13 13
REMARK SMILES IDX 14 14 15 15 16 16 17 17 19 18 20 19 21 20 22 21 23 22 24 23
REMARK SMILES IDX 25 24 26 25 27 26 28 27 29 28 30 29 18 30
REMARK H PARENT 18 31
ROOT
ATOM      1  C   UNL     1     -24.938   2.965   9.564  1.00  0.00    +0.010 C 
ATOM      2  C   UNL     1     -26.402   2.712   9.904  1.00  0.00    +0.012 C 
ATOM      3  C   UNL     1     -26.688   3.011  11.383  1.00  0.00    +0.011 C 
ATOM      4  C   UNL     1     -27.814   2.136  11.939  1.00  0.00    +0.066 C 
ATOM      5  C   UNL     1     -28.822   1.771  10.848  1.00  0.00    +0.171 C 
ATOM      6  O   UNL     1     -28.221   1.056   9.763  1.00  0.00    -0.349 OA
ATOM      7  C   UNL     1     -26.825   1.283   9.570  1.00  0.00    +0.167 C 
ATOM      8  O   UNL     1     -29.423   2.974  10.351  1.00  0.00    -0.346 OA
ATOM      9  C   UNL     1     -30.674   2.612   9.759  1.00  0.00    +0.126 C 
ATOM     10  C   UNL     1     -31.753   3.618  10.155  1.00  0.00    +0.037 C 
ATOM     11  C   UNL     1     -32.616   2.901  11.204  1.00  0.00    +0.001 C 
ATOM     12  C   UNL     1     -34.038   3.459  11.437  1.00  0.00    -0.004 C 
ATOM     13  C   UNL     1     -34.026   4.976  11.676  1.00  0.00    +0.004 C 
ATOM     14  C   UNL     1     -35.439   5.520  11.751  1.00  0.00    +0.004 C 
ATOM     15  C   UNL     1     -36.210   5.377  10.425  1.00  0.00    -0.002 C 
ATOM     16  C   UNL     1     -37.717   5.438  10.749  1.00  0.00    +0.036 C 
ATOM     17  C   UNL     1     -38.588   5.479   9.497  1.00  0.00    +0.114 C 
ATOM     18  C   UNL     1     -38.032   4.644   8.349  1.00  0.00    +0.032 C 
ATOM     19  C   UNL     1     -37.090   3.549   8.843  1.00  0.00    +0.010 C 
ATOM     20  C   UNL     1     -35.820   4.109   9.570  1.00  0.00    -0.026 C 
ATOM     21  C   UNL     1     -34.827   4.538   8.464  1.00  0.00    +0.012 C 
ATOM     22  C   UNL     1     -35.190   2.992  10.494  1.00  0.00    -0.001 C 
ATOM     23  C   UNL     1     -34.953   1.613   9.830  1.00  0.00    +0.005 C 
ATOM     24  C   UNL     1     -33.506   1.228   9.555  1.00  0.00    +0.008 C 
ATOM     25  C   UNL     1     -32.570   1.424  10.768  1.00  0.00    -0.024 C 
ATOM     26  C   UNL     1     -32.979   0.474  11.902  1.00  0.00    +0.012 C 
ATOM     27  C   UNL     1     -31.092   1.241  10.315  1.00  0.00    +0.033 C 
ATOM     28  C   UNL     1     -30.023   0.980  11.387  1.00  0.00    +0.052 C 
ATOM     29  C   UNL     1     -29.738  -0.502  11.612  1.00  0.00    +0.014 C 
ENDROOT
BRANCH  17  30
ATOM     30  O   UNL     1     -38.720   6.831   9.065  1.00  0.00    -0.393 OA
ATOM     31  H   UNL     1     -38.595   7.396   9.848  1.00  0.00    +0.210 HD
ENDBRANCH  17  30
TORSDOF 1
ENDMDL
MODEL 3
REMARK VINA RESULT:    -9.560      1.947      3.956
REMARK INTER + INTRA:          -9.840
REMARK INTER:                  -9.840
REMARK INTRA:                   0.000
REMARK UNBOUND:                 0.000
REMARK SMILES C[C@@H]1CC[C@]2(OC1)O[C@@H]1C[C@H]3[C@H]4CC[C@@H]5C[C@@H](O)CC[C@]5(C)[C@H]4CC[C@@]3(C)[C@@H]1[C@H]2C
REMARK SMILES IDX 1 1 2 2 3 3 4 4 5 5 6 6 7 7 8 8 9 9 10 10 11 11 12 12 13 13
REMARK SMILES IDX 14 14 15 15 16 16 17 17 19 18 20 19 21 20 22 21 23 22 24 23
REMARK SMILES IDX 25 24 26 25 27 26 28 27 29 28 30 29 18 30
REMARK H PARENT 18 31
ROOT
ATOM      1  C   UNL     1     -38.644   5.310  10.386  1.00  0.00    +0.010 C 
ATOM      2  C   UNL     1     -37.249   4.700  10.449  1.00  0.00    +0.012 C 
ATOM      3  C   UNL     1     -36.313   5.543  11.326  1.00  0.00    +0.011 C 
ATOM      4  C   UNL     1     -34.856   5.451  10.867  1.00  0.00    +0.066 C 
ATOM      5  C   UNL     1     -34.562   4.095  10.223  1.00  0.00    +0.171 C 
ATOM      6  O   UNL     1     -35.388   3.840   9.082  1.00  0.00    -0.349 OA
ATOM      7  C   UNL     1     -36.642   4.523   9.059  1.00  0.00    +0.167 C 
ATOM      8  O   UNL     1     -34.767   3.065  11.199  1.00  0.00    -0.346 OA
ATOM      9  C   UNL     1     -34.012   1.925  10.778  1.00  0.00    +0.126 C 
ATOM     10  C   UNL     1     -33.294   1.300  11.973  1.00  0.00    +0.037 C 
ATOM     11  C   UNL     1     -31.819   1.702  11.818  1.00  0.00    +0.001 C 
ATOM     12  C   UNL     1     -30.780   0.847  12.579  1.00  0.00    -0.004 C 
ATOM     13  C   UNL     1     -31.154   0.674  14.057  1.00  0.00    +0.004 C 
ATOM     14  C   UNL     1     -30.203  -0.289  14.742  1.00  0.00    +0.004 C 
ATOM     15  C   UNL     1     -30.294  -1.723  14.185  1.00  0.00    -0.002 C 
ATOM     16  C   UNL     1     -28.977  -2.447  14.533  1.00  0.00    +0.036 C 
ATOM     17  C   UNL     1     -29.010  -3.931  14.184  1.00  0.00    +0.114 C 
ATOM     18  C   UNL     1     -29.797  -4.233  12.913  1.00  0.00    +0.032 C 
ATOM     19  C   UNL     1     -29.892  -3.016  11.997  1.00  0.00    +0.010 C 
ATOM     20  C   UNL     1     -30.651  -1.810  12.649  1.00  0.00    -0.026 C 
ATOM     21  C   UNL     1     -32.162  -2.105  12.504  1.00  0.00    +0.012 C 
ATOM     22  C   UNL     1     -30.261  -0.466  11.914  1.00  0.00    -0.001 C 
ATOM     23  C   UNL     1     -30.359  -0.483  10.369  1.00  0.00    +0.005 C 
ATOM     24  C   UNL     1     -31.497   0.316   9.748  1.00  0.00    +0.008 C 
ATOM     25  C   UNL     1     -31.613   1.757  10.293  1.00  0.00    -0.024 C 
ATOM     26  C   UNL     1     -30.364   2.563   9.908  1.00  0.00    +0.012 C 
ATOM     27  C   UNL     1     -32.938   2.396   9.784  1.00  0.00    +0.033 C 
ATOM     28  C   UNL     1     -33.085   3.924   9.842  1.00  0.00    +0.052 C 
ATOM     29  C   UNL     1     -32.696   4.620   8.540  1.00  0.00    +0.014 C 
ENDROOT
BRANCH  17  30
ATOM     30  O   UNL     1     -29.587  -4.653  15.269  1.00  0.00    -0.393 OA
ATOM     31  H   UNL     1     -28.933  -5.312  15.557  1.00  0.00    +0.210 HD
ENDBRANCH  17  30
TORSDOF 1
ENDMDL
MODEL 4
REMARK VINA RESULT:    -9.483      3.936      5.614
REMARK INTER + INTRA:          -9.760
REMARK INTER:                  -9.760
REMARK INTRA:                   0.000
REMARK UNBOUND:                 0.000
REMARK SMILES C[C@@H]1CC[C@]2(OC1)O[C@@H]1C[C@H]3[C@H]4CC[C@@H]5C[C@@H](O)CC[C@]5(C)[C@H]4CC[C@@]3(C)[C@@H]1[C@H]2C
REMARK SMILES IDX 1 1 2 2 3 3 4 4 5 5 6 6 7 7 8 8 9 9 10 10 11 11 12 12 13 13
REMARK SMILES IDX 14 14 15 15 16 16 17 17 19 18 20 19 21 20 22 21 23 22 24 23
REMARK SMILES IDX 25 24 26 25 27 26 28 27 29 28 30 29 18 30
REMARK H PARENT 18 31
ROOT
ATOM      1  C   UNL     1     -35.552   3.928   8.192  1.00  0.00    +0.010 C 
ATOM      2  C   UNL     1     -34.412   3.255   8.947  1.00  0.00    +0.012 C 
ATOM      3  C   UNL     1     -34.539   1.725   8.897  1.00  0.00    +0.011 C 
ATOM      4  C   UNL     1     -33.952   1.058  10.144  1.00  0.00    +0.066 C 
ATOM      5  C   UNL     1     -32.799   1.881  10.721  1.00  0.00    +0.171 C 
ATOM      6  O   UNL     1     -33.201   3.203  11.093  1.00  0.00    -0.349 OA
ATOM      7  C   UNL     1     -34.335   3.724  10.398  1.00  0.00    +0.167 C 
ATOM      8  O   UNL     1     -31.751   1.959   9.746  1.00  0.00    -0.346 OA
ATOM      9  C   UNL     1     -30.537   2.243  10.447  1.00  0.00    +0.126 C 
ATOM     10  C   UNL     1     -29.400   1.386   9.897  1.00  0.00    +0.037 C 
ATOM     11  C   UNL     1     -29.162   0.296  10.954  1.00  0.00    +0.001 C 
ATOM     12  C   UNL     1     -27.791  -0.418  10.923  1.00  0.00    -0.004 C 
ATOM     13  C   UNL     1     -27.442  -0.926   9.517  1.00  0.00    +0.004 C 
ATOM     14  C   UNL     1     -26.033  -1.485   9.483  1.00  0.00    +0.004 C 
ATOM     15  C   UNL     1     -24.954  -0.418   9.751  1.00  0.00    -0.002 C 
ATOM     16  C   UNL     1     -23.680  -1.147  10.225  1.00  0.00    +0.036 C 
ATOM     17  C   UNL     1     -22.482  -0.211  10.361  1.00  0.00    +0.114 C 
ATOM     18  C   UNL     1     -22.859   1.181  10.854  1.00  0.00    +0.032 C 
ATOM     19  C   UNL     1     -24.183   1.179  11.615  1.00  0.00    +0.010 C 
ATOM     20  C   UNL     1     -25.400   0.734  10.734  1.00  0.00    -0.026 C 
ATOM     21  C   UNL     1     -25.819   1.967   9.900  1.00  0.00    +0.012 C 
ATOM     22  C   UNL     1     -26.585   0.246  11.658  1.00  0.00    -0.001 C 
ATOM     23  C   UNL     1     -26.985   1.196  12.812  1.00  0.00    +0.005 C 
ATOM     24  C   UNL     1     -28.315   1.925  12.668  1.00  0.00    +0.008 C 
ATOM     25  C   UNL     1     -29.490   0.999  12.284  1.00  0.00    -0.024 C 
ATOM     26  C   UNL     1     -29.756  -0.004  13.416  1.00  0.00    +0.012 C 
ATOM     27  C   UNL     1     -30.733   1.864  11.924  1.00  0.00    +0.033 C 
ATOM     28  C   UNL     1     -32.115   1.194  11.912  1.00  0.00    +0.052 C 
ATOM     29  C   UNL     1     -32.871   1.339  13.229  1.00  0.00    +0.014 C 
ENDROOT
BRANCH  17  30
ATOM     30  O   UNL     1     -21.835  -0.096   9.095  1.00  0.00    -0.393 OA
ATOM     31  H   UNL     1     -22.382  -0.574   8.448  1.00  0.00    +0.210 HD
ENDBRANCH  17  30
TORSDOF 1
ENDMDL
MODEL 5
REMARK VINA RESULT:    -8.697      1.460      2.525
REMARK INTER + INTRA:          -8.952
REMARK INTER:                  -8.952
REMARK INTRA:                   0.000
REMARK UNBOUND:                 0.000
REMARK SMILES C[C@@H]1CC[C@]2(OC1)O[C@@H]1C[C@H]3[C@H]4CC[C@@H]5C[C@@H](O)CC[C@]5(C)[C@H]4CC[C@@]3(C)[C@@H]1[C@H]2C
REMARK SMILES IDX 1 1 2 2 3 3 4 4 5 5 6 6 7 7 8 8 9 9 10 10 11 11 12 12 13 13
REMARK SMILES IDX 14 14 15 15 16 16 17 17 19 18 20 19 21 20 22 21 23 22 24 23
REMARK SMILES IDX 25 24 26 25 27 26 28 27 29 28 30 29 18 30
REMARK H PARENT 18 31
ROOT
ATOM      1  C   UNL     1     -34.270   5.255   5.292  1.00  0.00    +0.010 C 
ATOM      2  C   UNL     1     -34.011   4.519   6.602  1.00  0.00    +0.012 C 
ATOM      3  C   UNL     1     -35.250   3.730   7.049  1.00  0.00    +0.011 C 
ATOM      4  C   UNL     1     -35.337   3.612   8.573  1.00  0.00    +0.066 C 
ATOM      5  C   UNL     1     -33.946   3.604   9.208  1.00  0.00    +0.171 C 
ATOM      6  O   UNL     1     -33.202   4.791   8.913  1.00  0.00    -0.349 OA
ATOM      7  C   UNL     1     -33.570   5.470   7.712  1.00  0.00    +0.167 C 
ATOM      8  O   UNL     1     -33.225   2.459   8.732  1.00  0.00    -0.346 OA
ATOM      9  C   UNL     1     -32.197   2.177   9.685  1.00  0.00    +0.126 C 
ATOM     10  C   UNL     1     -32.113   0.673   9.937  1.00  0.00    +0.037 C 
ATOM     11  C   UNL     1     -32.752   0.453  11.316  1.00  0.00    +0.001 C 
ATOM     12  C   UNL     1     -32.394  -0.859  12.050  1.00  0.00    -0.004 C 
ATOM     13  C   UNL     1     -32.584  -2.088  11.151  1.00  0.00    +0.004 C 
ATOM     14  C   UNL     1     -32.084  -3.342  11.842  1.00  0.00    +0.004 C 
ATOM     15  C   UNL     1     -30.564  -3.323  12.097  1.00  0.00    -0.002 C 
ATOM     16  C   UNL     1     -30.267  -4.323  13.234  1.00  0.00    +0.036 C 
ATOM     17  C   UNL     1     -28.772  -4.523  13.467  1.00  0.00    +0.114 C 
ATOM     18  C   UNL     1     -27.956  -3.252  13.261  1.00  0.00    +0.032 C 
ATOM     19  C   UNL     1     -28.805  -1.994  13.423  1.00  0.00    +0.010 C 
ATOM     20  C   UNL     1     -29.961  -1.890  12.371  1.00  0.00    -0.026 C 
ATOM     21  C   UNL     1     -29.327  -1.358  11.065  1.00  0.00    +0.012 C 
ATOM     22  C   UNL     1     -31.083  -0.909  12.897  1.00  0.00    -0.001 C 
ATOM     23  C   UNL     1     -30.598   0.470  13.406  1.00  0.00    +0.005 C 
ATOM     24  C   UNL     1     -30.924   1.674  12.531  1.00  0.00    +0.008 C 
ATOM     25  C   UNL     1     -32.403   1.738  12.091  1.00  0.00    -0.024 C 
ATOM     26  C   UNL     1     -33.305   1.936  13.317  1.00  0.00    +0.012 C 
ATOM     27  C   UNL     1     -32.573   2.851  11.015  1.00  0.00    +0.033 C 
ATOM     28  C   UNL     1     -33.985   3.382  10.727  1.00  0.00    +0.052 C 
ATOM     29  C   UNL     1     -34.338   4.633  11.527  1.00  0.00    +0.014 C 
ENDROOT
BRANCH  17  30
ATOM     30  O   UNL     1     -28.294  -5.531  12.579  1.00  0.00    -0.393 OA
ATOM     31  H   UNL     1     -28.584  -5.286  11.683  1.00  0.00    +0.210 HD
ENDBRANCH  17  30
TORSDOF 1
ENDMDL
