REMARK SMILES CC(=O)CCCOC(C)=O
REMARK SMILES IDX 5 1 4 2 2 3 3 4 1 5 6 6 7 7 8 8 10 9 9 10
REMARK H PARENT
ROOT
ATOM      1  C   UNL     1      -0.199  -0.543   0.397  1.00  0.00    +0.049 C 
ENDROOT
BRANCH   1   2
ATOM      2  C   UNL     1      -1.534  -0.717  -0.321  1.00  0.00    +0.079 C 
BRANCH   2   3
ATOM      3  C   UNL     1      -2.561   0.345   0.026  1.00  0.00    +0.129 C 
ATOM      4  O   UNL     1      -2.338   1.248   0.831  1.00  0.00    -0.300 OA
ATOM      5  C   UNL     1      -3.893   0.235  -0.670  1.00  0.00    +0.087 C 
ENDBRANCH   2   3
ENDBRANCH   1   2
BRANCH   1   6
ATOM      6  C   UNL     1       0.606   0.647  -0.123  1.00  0.00    +0.233 C 
BRANCH   6   7
ATOM      7  O   UNL     1       1.896   0.680   0.510  1.00  0.00    -0.466 OA
BRANCH   7   8
ATOM      8  C   UNL     1       2.865  -0.068  -0.084  1.00  0.00    +0.302 C 
ATOM      9  O   UNL     1       2.719  -0.764  -1.079  1.00  0.00    -0.253 OA
ATOM     10  C   UNL     1       4.153   0.074   0.668  1.00  0.00    +0.139 C 
ENDBRANCH   7   8
ENDBRANCH   6   7
ENDBRANCH   1   6
TORSDOF 5
