REMARK SMILES CC(C)NC[C@@H](O)COc1ccccc1
REMARK SMILES IDX 5 1 4 2 2 4 1 5 3 6 6 7 8 8 9 9 10 10 11 11 15 12 12 13
REMARK SMILES IDX 14 14 13 15 7 16
REMARK H PARENT 4 3 7 17
ROOT
ATOM      1  C   UNL     1      -1.177   0.382  -0.408  1.00  0.00    +0.116 C 
ENDROOT
BRANCH   1   2
ATOM      2  N   UNL     1      -2.522   0.864  -0.046  1.00  0.00    -0.312 NA
ATOM      3  H   UNL     1      -2.727   1.683  -0.618  1.00  0.00    +0.123 HD
BRANCH   2   4
ATOM      4  C   UNL     1      -3.594  -0.128  -0.191  1.00  0.00    +0.047 C 
ATOM      5  C   UNL     1      -4.019  -0.629   1.190  1.00  0.00    +0.024 C 
ATOM      6  C   UNL     1      -4.797   0.519  -0.886  1.00  0.00    +0.024 C 
ENDBRANCH   2   4
ENDBRANCH   1   2
BRANCH   1   7
ATOM      7  C   UNL     1      -0.575  -0.724   0.497  1.00  0.00    +0.165 C 
BRANCH   7   8
ATOM      8  C   UNL     1       0.935  -0.889   0.254  1.00  0.00    +0.262 C 
BRANCH   8   9
ATOM      9  O   UNL     1       1.616   0.327   0.555  1.00  0.00    -0.491 OA
BRANCH   9  10
ATOM     10  C   UNL     1       2.969   0.351   0.356  1.00  0.00    +0.119 A 
ATOM     11  C   UNL     1       3.759  -0.724  -0.054  1.00  0.00    +0.046 A 
ATOM     12  C   UNL     1       3.571   1.588   0.601  1.00  0.00    +0.046 A 
ATOM     13  C   UNL     1       5.138  -0.558  -0.220  1.00  0.00    +0.004 A 
ATOM     14  C   UNL     1       4.947   1.754   0.435  1.00  0.00    +0.004 A 
ATOM     15  C   UNL     1       5.731   0.680   0.024  1.00  0.00    +0.000 A 
ENDBRANCH   9  10
ENDBRANCH   8   9
ENDBRANCH   7   8
BRANCH   7  16
ATOM     16  O   UNL     1      -1.198  -1.995   0.258  1.00  0.00    -0.388 OA
ATOM     17  H   UNL     1      -1.261  -2.119  -0.704  1.00  0.00    +0.211 HD
ENDBRANCH   7  16
ENDBRANCH   1   7
TORSDOF 7
