MODEL 1
REMARK VINA RESULT:    -6.704      0.000      0.000
REMARK INTER + INTRA:          -6.900
REMARK INTER:                  -6.900
REMARK INTRA:                   0.000
REMARK UNBOUND:                 0.000
REMARK SMILES Cc1cc(C)c(N)c(C)c1
REMARK SMILES IDX 1 1 2 2 10 3 8 4 6 5 4 6 3 7 5 8 9 9 7 10
REMARK H PARENT 7 11 7 12
ROOT
ATOM      1  C   UNL     1     -31.340  10.792   7.671  1.00  0.00    +0.044 C 
ATOM      2  C   UNL     1     -29.999  10.864   7.004  1.00  0.00    -0.050 A 
ATOM      3  C   UNL     1     -29.158   9.750   6.978  1.00  0.00    +0.009 A 
ATOM      4  C   UNL     1     -27.911   9.796   6.330  1.00  0.00    -0.028 A 
ATOM      5  C   UNL     1     -27.522  10.963   5.639  1.00  0.00    +0.037 A 
ATOM      6  C   UNL     1     -28.345  12.107   5.709  1.00  0.00    -0.028 A 
ATOM      7  C   UNL     1     -29.587  12.035   6.364  1.00  0.00    +0.009 A 
ATOM      8  C   UNL     1     -27.938  13.412   5.079  1.00  0.00    +0.046 C 
ATOM      9  C   UNL     1     -27.030   8.576   6.377  1.00  0.00    +0.046 C 
ENDROOT
BRANCH   5  10
ATOM     10  N   UNL     1     -26.236  11.052   5.069  1.00  0.00    -0.398 N 
ATOM     11  H   UNL     1     -26.163  11.752   4.340  1.00  0.00    +0.156 HD
ATOM     12  H   UNL     1     -25.494  11.147   5.753  1.00  0.00    +0.156 HD
ENDBRANCH   5  10
TORSDOF 1
ENDMDL
MODEL 2
REMARK VINA RESULT:    -6.677      0.111      2.744
REMARK INTER + INTRA:          -6.872
REMARK INTER:                  -6.872
REMARK INTRA:                   0.000
REMARK UNBOUND:                 0.000
REMARK SMILES Cc1cc(C)c(N)c(C)c1
REMARK SMILES IDX 1 1 2 2 10 3 8 4 6 5 4 6 3 7 5 8 9 9 7 10
REMARK H PARENT 7 11 7 12
ROOT
ATOM      1  C   UNL     1     -31.422  10.781   7.697  1.00  0.00    +0.044 C 
ATOM      2  C   UNL     1     -30.093  10.829   7.005  1.00  0.00    -0.050 A 
ATOM      3  C   UNL     1     -29.654  12.003   6.390  1.00  0.00    +0.009 A 
ATOM      4  C   UNL     1     -28.398  12.070   5.764  1.00  0.00    -0.028 A 
ATOM      5  C   UNL     1     -27.533  10.955   5.805  1.00  0.00    +0.037 A 
ATOM      6  C   UNL     1     -27.995   9.751   6.377  1.00  0.00    -0.028 A 
ATOM      7  C   UNL     1     -29.256   9.710   6.997  1.00  0.00    +0.009 A 
ATOM      8  C   UNL     1     -27.160   8.499   6.362  1.00  0.00    +0.046 C 
ATOM      9  C   UNL     1     -28.001  13.351   5.079  1.00  0.00    +0.046 C 
ENDROOT
BRANCH   5  10
ATOM     10  N   UNL     1     -26.314  10.979   5.099  1.00  0.00    -0.398 N 
ATOM     11  H   UNL     1     -25.954  11.914   4.942  1.00  0.00    +0.156 HD
ATOM     12  H   UNL     1     -25.606  10.368   5.489  1.00  0.00    +0.156 HD
ENDBRANCH   5  10
TORSDOF 1
ENDMDL
MODEL 3
REMARK VINA RESULT:    -6.083      1.504      2.628
REMARK INTER + INTRA:          -6.261
REMARK INTER:                  -6.261
REMARK INTRA:                   0.000
REMARK UNBOUND:                 0.000
REMARK SMILES Cc1cc(C)c(N)c(C)c1
REMARK SMILES IDX 1 1 2 2 10 3 8 4 6 5 4 6 3 7 5 8 9 9 7 10
REMARK H PARENT 7 11 7 12
ROOT
ATOM      1  C   UNL     1     -28.813   7.380   8.042  1.00  0.00    +0.044 C 
ATOM      2  C   UNL     1     -28.701   8.716   7.373  1.00  0.00    -0.050 A 
ATOM      3  C   UNL     1     -27.472   9.167   6.885  1.00  0.00    +0.009 A 
ATOM      4  C   UNL     1     -27.360  10.405   6.229  1.00  0.00    -0.028 A 
ATOM      5  C   UNL     1     -28.514  11.185   6.001  1.00  0.00    +0.037 A 
ATOM      6  C   UNL     1     -29.746  10.759   6.540  1.00  0.00    -0.028 A 
ATOM      7  C   UNL     1     -29.832   9.516   7.192  1.00  0.00    +0.009 A 
ATOM      8  C   UNL     1     -30.992  11.595   6.417  1.00  0.00    +0.046 C 
ATOM      9  C   UNL     1     -25.999  10.854   5.767  1.00  0.00    +0.046 C 
ENDROOT
BRANCH   5  10
ATOM     10  N   UNL     1     -28.398  12.468   5.431  1.00  0.00    -0.398 N 
ATOM     11  H   UNL     1     -27.453  12.836   5.447  1.00  0.00    +0.156 HD
ATOM     12  H   UNL     1     -28.810  12.542   4.508  1.00  0.00    +0.156 HD
ENDBRANCH   5  10
TORSDOF 1
ENDMDL
MODEL 4
REMARK VINA RESULT:    -6.002      1.440      2.462
REMARK INTER + INTRA:          -6.177
REMARK INTER:                  -6.177
REMARK INTRA:                   0.000
REMARK UNBOUND:                 0.000
REMARK SMILES Cc1cc(C)c(N)c(C)c1
REMARK SMILES IDX 1 1 2 2 10 3 8 4 6 5 4 6 3 7 5 8 9 9 7 10
REMARK H PARENT 7 11 7 12
ROOT
ATOM      1  C   UNL     1     -29.323   7.347   8.027  1.00  0.00    +0.044 C 
ATOM      2  C   UNL     1     -28.349   8.278   7.369  1.00  0.00    -0.050 A 
ATOM      3  C   UNL     1     -27.015   7.904   7.196  1.00  0.00    +0.009 A 
ATOM      4  C   UNL     1     -26.099   8.755   6.555  1.00  0.00    -0.028 A 
ATOM      5  C   UNL     1     -26.539   9.984   6.019  1.00  0.00    +0.037 A 
ATOM      6  C   UNL     1     -27.873  10.389   6.239  1.00  0.00    -0.028 A 
ATOM      7  C   UNL     1     -28.770   9.519   6.884  1.00  0.00    +0.009 A 
ATOM      8  C   UNL     1     -28.377  11.731   5.780  1.00  0.00    +0.046 C 
ATOM      9  C   UNL     1     -24.664   8.314   6.440  1.00  0.00    +0.046 C 
ENDROOT
BRANCH   5  10
ATOM     10  N   UNL     1     -25.611  10.885   5.460  1.00  0.00    -0.398 N 
ATOM     11  H   UNL     1     -26.022  11.767   5.175  1.00  0.00    +0.156 HD
ATOM     12  H   UNL     1     -24.786  11.026   6.031  1.00  0.00    +0.156 HD
ENDBRANCH   5  10
TORSDOF 1
ENDMDL
MODEL 5
REMARK VINA RESULT:    -5.843      1.486      3.285
REMARK INTER + INTRA:          -6.014
REMARK INTER:                  -6.014
REMARK INTRA:                   0.000
REMARK UNBOUND:                 0.000
REMARK SMILES Cc1cc(C)c(N)c(C)c1
REMARK SMILES IDX 1 1 2 2 10 3 8 4 6 5 4 6 3 7 5 8 9 9 7 10
REMARK H PARENT 7 11 7 12
ROOT
ATOM      1  C   UNL     1     -30.506  10.120   7.291  1.00  0.00    +0.044 C 
ATOM      2  C   UNL     1     -29.075   9.844   6.942  1.00  0.00    -0.050 A 
ATOM      3  C   UNL     1     -28.307  10.803   6.277  1.00  0.00    +0.009 A 
ATOM      4  C   UNL     1     -26.956  10.569   5.971  1.00  0.00    -0.028 A 
ATOM      5  C   UNL     1     -26.339   9.371   6.392  1.00  0.00    +0.037 A 
ATOM      6  C   UNL     1     -27.124   8.378   7.015  1.00  0.00    -0.028 A 
ATOM      7  C   UNL     1     -28.474   8.638   7.310  1.00  0.00    +0.009 A 
ATOM      8  C   UNL     1     -26.548   7.041   7.397  1.00  0.00    +0.046 C 
ATOM      9  C   UNL     1     -26.196  11.624   5.213  1.00  0.00    +0.046 C 
ENDROOT
BRANCH   5  10
ATOM     10  N   UNL     1     -25.014   9.086   6.007  1.00  0.00    -0.398 N 
ATOM     11  H   UNL     1     -24.668   9.686   5.267  1.00  0.00    +0.156 HD
ATOM     12  H   UNL     1     -24.365   9.042   6.784  1.00  0.00    +0.156 HD
ENDBRANCH   5  10
TORSDOF 1
ENDMDL
MODEL 6
REMARK VINA RESULT:    -5.827      1.374      3.228
REMARK INTER + INTRA:          -5.998
REMARK INTER:                  -5.998
REMARK INTRA:                   0.000
REMARK UNBOUND:                 0.000
REMARK SMILES Cc1cc(C)c(N)c(C)c1
REMARK SMILES IDX 1 1 2 2 10 3 8 4 6 5 4 6 3 7 5 8 9 9 7 10
REMARK H PARENT 7 11 7 12
ROOT
ATOM      1  C   UNL     1     -32.327   8.717   7.355  1.00  0.00    +0.044 C 
ATOM      2  C   UNL     1     -30.927   9.180   7.082  1.00  0.00    -0.050 A 
ATOM      3  C   UNL     1     -30.682  10.485   6.651  1.00  0.00    +0.009 A 
ATOM      4  C   UNL     1     -29.372  10.940   6.420  1.00  0.00    -0.028 A 
ATOM      5  C   UNL     1     -28.278  10.090   6.684  1.00  0.00    +0.037 A 
ATOM      6  C   UNL     1     -28.524   8.755   7.067  1.00  0.00    -0.028 A 
ATOM      7  C   UNL     1     -29.843   8.324   7.291  1.00  0.00    +0.009 A 
ATOM      8  C   UNL     1     -27.402   7.771   7.267  1.00  0.00    +0.046 C 
ATOM      9  C   UNL     1     -29.177  12.344   5.912  1.00  0.00    +0.046 C 
ENDROOT
BRANCH   5  10
ATOM     10  N   UNL     1     -26.968  10.503   6.366  1.00  0.00    -0.398 N 
ATOM     11  H   UNL     1     -26.300   9.742   6.329  1.00  0.00    +0.156 HD
ATOM     12  H   UNL     1     -26.916  11.084   5.537  1.00  0.00    +0.156 HD
ENDBRANCH   5  10
TORSDOF 1
ENDMDL
MODEL 7
REMARK VINA RESULT:    -5.472      2.709      4.620
REMARK INTER + INTRA:          -5.632
REMARK INTER:                  -5.632
REMARK INTRA:                   0.000
REMARK UNBOUND:                 0.000
REMARK SMILES Cc1cc(C)c(N)c(C)c1
REMARK SMILES IDX 1 1 2 2 10 3 8 4 6 5 4 6 3 7 5 8 9 9 7 10
REMARK H PARENT 7 11 7 12
ROOT
ATOM      1  C   UNL     1     -27.009   4.799   8.800  1.00  0.00    +0.044 C 
ATOM      2  C   UNL     1     -26.912   6.131   8.120  1.00  0.00    -0.050 A 
ATOM      3  C   UNL     1     -25.716   6.541   7.525  1.00  0.00    +0.009 A 
ATOM      4  C   UNL     1     -25.621   7.774   6.859  1.00  0.00    -0.028 A 
ATOM      5  C   UNL     1     -26.763   8.593   6.732  1.00  0.00    +0.037 A 
ATOM      6  C   UNL     1     -27.957   8.209   7.377  1.00  0.00    -0.028 A 
ATOM      7  C   UNL     1     -28.027   6.969   8.037  1.00  0.00    +0.009 A 
ATOM      8  C   UNL     1     -29.180   9.086   7.363  1.00  0.00    +0.046 C 
ATOM      9  C   UNL     1     -24.292   8.178   6.278  1.00  0.00    +0.046 C 
ENDROOT
BRANCH   5  10
ATOM     10  N   UNL     1     -26.655   9.873   6.151  1.00  0.00    -0.398 N 
ATOM     11  H   UNL     1     -27.416  10.098   5.520  1.00  0.00    +0.156 HD
ATOM     12  H   UNL     1     -26.498  10.613   6.825  1.00  0.00    +0.156 HD
ENDBRANCH   5  10
TORSDOF 1
ENDMDL
MODEL 8
REMARK VINA RESULT:    -5.456      2.284      3.137
REMARK INTER + INTRA:          -5.616
REMARK INTER:                  -5.616
REMARK INTRA:                   0.000
REMARK UNBOUND:                 0.000
REMARK SMILES Cc1cc(C)c(N)c(C)c1
REMARK SMILES IDX 1 1 2 2 10 3 8 4 6 5 4 6 3 7 5 8 9 9 7 10
REMARK H PARENT 7 11 7 12
ROOT
ATOM      1  C   UNL     1     -32.809   6.966   7.531  1.00  0.00    +0.044 C 
ATOM      2  C   UNL     1     -31.645   7.898   7.373  1.00  0.00    -0.050 A 
ATOM      3  C   UNL     1     -30.340   7.446   7.580  1.00  0.00    +0.009 A 
ATOM      4  C   UNL     1     -29.238   8.301   7.406  1.00  0.00    -0.028 A 
ATOM      5  C   UNL     1     -29.441   9.623   6.956  1.00  0.00    +0.037 A 
ATOM      6  C   UNL     1     -30.760  10.099   6.798  1.00  0.00    -0.028 A 
ATOM      7  C   UNL     1     -31.845   9.223   6.978  1.00  0.00    +0.009 A 
ATOM      8  C   UNL     1     -31.044  11.528   6.418  1.00  0.00    +0.046 C 
ATOM      9  C   UNL     1     -27.860   7.767   7.689  1.00  0.00    +0.046 C 
ENDROOT
BRANCH   5  10
ATOM     10  N   UNL     1     -28.354  10.516   6.871  1.00  0.00    -0.398 N 
ATOM     11  H   UNL     1     -28.354  11.077   6.026  1.00  0.00    +0.156 HD
ATOM     12  H   UNL     1     -28.232  11.089   7.698  1.00  0.00    +0.156 HD
ENDBRANCH   5  10
TORSDOF 1
ENDMDL
MODEL 9
REMARK VINA RESULT:    -5.312      9.527     10.913
REMARK INTER + INTRA:          -5.467
REMARK INTER:                  -5.467
REMARK INTRA:                   0.000
REMARK UNBOUND:                 0.000
REMARK SMILES Cc1cc(C)c(N)c(C)c1
REMARK SMILES IDX 1 1 2 2 10 3 8 4 6 5 4 6 3 7 5 8 9 9 7 10
REMARK H PARENT 7 11 7 12
ROOT
ATOM      1  C   UNL     1     -37.204   1.613  10.753  1.00  0.00    +0.044 C 
ATOM      2  C   UNL     1     -36.756   2.912  10.154  1.00  0.00    -0.050 A 
ATOM      3  C   UNL     1     -36.046   2.934   8.951  1.00  0.00    +0.009 A 
ATOM      4  C   UNL     1     -35.647   4.146   8.365  1.00  0.00    -0.028 A 
ATOM      5  C   UNL     1     -36.017   5.370   8.962  1.00  0.00    +0.037 A 
ATOM      6  C   UNL     1     -36.686   5.352  10.204  1.00  0.00    -0.028 A 
ATOM      7  C   UNL     1     -37.075   4.125  10.770  1.00  0.00    +0.009 A 
ATOM      8  C   UNL     1     -37.020   6.622  10.940  1.00  0.00    +0.046 C 
ATOM      9  C   UNL     1     -34.844   4.101   7.092  1.00  0.00    +0.046 C 
ENDROOT
BRANCH   5  10
ATOM     10  N   UNL     1     -35.540   6.587   8.435  1.00  0.00    -0.398 N 
ATOM     11  H   UNL     1     -35.966   6.841   7.550  1.00  0.00    +0.156 HD
ATOM     12  H   UNL     1     -35.569   7.356   9.096  1.00  0.00    +0.156 HD
ENDBRANCH   5  10
TORSDOF 1
ENDMDL
