REMARK SMILES N#CSc1cc(SC#N)c2ccccc2c1N
REMARK SMILES IDX 16 1 15 2 14 3 13 4 12 5 11 6 10 7 6 8 5 9 4 10 17 11 3 14
REMARK SMILES IDX 2 15 1 16 7 17 8 18 9 19
REMARK H PARENT 17 12 17 13
ROOT
ATOM      1  C   UNL     1       0.394  -1.092   0.861  1.00  0.00    +0.054 A 
ATOM      2  C   UNL     1      -0.694  -0.378   0.272  1.00  0.00    +0.007 A 
ATOM      3  C   UNL     1      -2.046  -0.715   0.531  1.00  0.00    +0.011 A 
ATOM      4  C   UNL     1      -3.111  -0.044  -0.069  1.00  0.00    +0.001 A 
ATOM      5  C   UNL     1      -2.858   0.992  -0.949  1.00  0.00    +0.001 A 
ATOM      6  C   UNL     1      -1.540   1.366  -1.210  1.00  0.00    +0.010 A 
ATOM      7  C   UNL     1      -0.434   0.713  -0.606  1.00  0.00    -0.002 A 
ATOM      8  C   UNL     1       0.913   1.109  -0.828  1.00  0.00    +0.031 A 
ATOM      9  C   UNL     1       1.966   0.434  -0.199  1.00  0.00    +0.035 A 
ATOM     10  C   UNL     1       1.718  -0.648   0.647  1.00  0.00    +0.047 A 
ENDROOT
BRANCH   1  11
ATOM     11  N   UNL     1       0.151  -2.127   1.800  1.00  0.00    -0.397 N 
ATOM     12  H   UNL     1       0.968  -2.692   2.012  1.00  0.00    +0.156 HD
ATOM     13  H   UNL     1      -0.652  -2.705   1.574  1.00  0.00    +0.156 HD
ENDBRANCH   1  11
BRANCH  10  14
ATOM     14  S   UNL     1       3.127  -1.444   1.424  1.00  0.00    -0.008 SA
ATOM     15  C   UNL     1       3.342  -2.635   0.242  1.00  0.00    +0.138 C 
ATOM     16  N   UNL     1       3.483  -3.457  -0.564  1.00  0.00    -0.185 NA
ENDBRANCH  10  14
BRANCH   8  17
ATOM     17  S   UNL     1       1.380   2.468  -1.913  1.00  0.00    -0.009 SA
ATOM     18  C   UNL     1       1.246   3.693  -0.752  1.00  0.00    +0.138 C 
ATOM     19  N   UNL     1       1.160   4.536   0.040  1.00  0.00    -0.185 NA
ENDBRANCH   8  17
TORSDOF 3
