REMARK SMILES O=[N+]([O-])c1ccc(O)c(CCl)c1
REMARK SMILES IDX 7 1 6 2 5 3 4 4 12 5 9 6 8 7 10 9 11 10 2 11 1 12 3 13
REMARK H PARENT 8 8
ROOT
ATOM      1  C   UNL     1      -0.898  -0.892   0.610  1.00  0.00    +0.120 A 
ATOM      2  C   UNL     1       0.255  -1.655   0.800  1.00  0.00    +0.053 A 
ATOM      3  C   UNL     1       1.483  -1.195   0.328  1.00  0.00    +0.089 A 
ATOM      4  C   UNL     1       1.541   0.033  -0.342  1.00  0.00    +0.270 A 
ATOM      5  C   UNL     1       0.377   0.793  -0.546  1.00  0.00    +0.094 A 
ATOM      6  C   UNL     1      -0.865   0.332  -0.074  1.00  0.00    +0.015 A 
ENDROOT
BRANCH   1   7
ATOM      7  O   UNL     1      -2.053  -1.406   1.126  1.00  0.00    -0.508 OA
ATOM      8  H   UNL     1      -2.643  -0.669   1.368  1.00  0.00    +0.293 HD
ENDBRANCH   1   7
BRANCH   6   9
ATOM      9  C   UNL     1      -2.109   1.129  -0.358  1.00  0.00    +0.149 C 
ATOM     10 Cl   UNL     1      -2.860   1.694   1.150  1.00  0.00    -0.121 Cl
ENDBRANCH   6   9
BRANCH   4  11
ATOM     11  N   UNL     1       2.830   0.526  -0.844  1.00  0.00    +0.062 N 
ATOM     12  O   UNL     1       2.831   1.596  -1.470  1.00  0.00    -0.258 OA
ATOM     13  O   UNL     1       3.839  -0.155  -0.615  1.00  0.00    -0.258 OA
ENDBRANCH   4  11
TORSDOF 3
