MODEL 1
REMARK VINA RESULT:   -10.004      0.000      0.000
REMARK INTER + INTRA:         -12.695
REMARK INTER:                 -12.344
REMARK INTRA:                  -0.351
REMARK UNBOUND:                -0.351
REMARK SMILES O=S(=O)(O)c1cc(O)c2ccc(Nc3ccccc3)cc2c1
REMARK SMILES IDX 7 1 9 2 10 3 11 4 12 5 20 6 21 7 22 8 5 9 6 10 8 11 2 13
REMARK SMILES IDX 1 14 3 15 4 16 13 18 14 20 15 21 19 22 16 23 18 24 17 25
REMARK H PARENT 8 12 4 17 13 19
ROOT
ATOM      1  C   UNL     1     -26.556   9.787   6.099  1.00  0.00    +0.124 A 
ATOM      2  C   UNL     1     -26.703   8.551   6.775  1.00  0.00    +0.024 A 
ATOM      3  C   UNL     1     -25.711   7.548   6.828  1.00  0.00    +0.015 A 
ATOM      4  C   UNL     1     -25.921   6.351   7.522  1.00  0.00    +0.027 A 
ATOM      5  C   UNL     1     -27.127   6.099   8.180  1.00  0.00    +0.039 A 
ATOM      6  C   UNL     1     -28.119   7.084   8.126  1.00  0.00    +0.035 A 
ATOM      7  C   UNL     1     -27.932   8.293   7.430  1.00  0.00    -0.011 A 
ATOM      8  C   UNL     1     -28.965   9.242   7.379  1.00  0.00    +0.032 A 
ATOM      9  C   UNL     1     -28.786  10.441   6.686  1.00  0.00    +0.098 A 
ATOM     10  C   UNL     1     -27.588  10.720   6.039  1.00  0.00    +0.069 A 
ENDROOT
BRANCH   1  11
ATOM     11  O   UNL     1     -25.401  10.158   5.464  1.00  0.00    -0.507 OA
ATOM     12  H   UNL     1     -25.267  11.111   5.587  1.00  0.00    +0.293 HD
ENDBRANCH   1  11
BRANCH   9  13
ATOM     13  S   UNL     1     -30.118  11.600   6.611  1.00  0.00    +0.294 S 
ATOM     14  O   UNL     1     -30.386  12.046   7.957  1.00  0.00    -0.194 OA
ATOM     15  O   UNL     1     -29.862  12.524   5.527  1.00  0.00    -0.194 OA
BRANCH  13  16
ATOM     16  O   UNL     1     -31.381  10.728   6.112  1.00  0.00    -0.282 OA
ATOM     17  H   UNL     1     -31.150   9.783   6.241  1.00  0.00    +0.234 HD
ENDBRANCH  13  16
ENDBRANCH   9  13
BRANCH   5  18
ATOM     18  N   UNL     1     -27.275   4.903   8.901  1.00  0.00    -0.356 N 
ATOM     19  H   UNL     1     -28.237   4.611   9.032  1.00  0.00    +0.167 HD
BRANCH  18  20
ATOM     20  C   UNL     1     -26.335   4.018   9.456  1.00  0.00    +0.038 A 
ATOM     21  C   UNL     1     -25.260   4.444  10.246  1.00  0.00    +0.026 A 
ATOM     22  C   UNL     1     -26.502   2.640   9.260  1.00  0.00    +0.026 A 
ATOM     23  C   UNL     1     -24.371   3.524  10.811  1.00  0.00    +0.002 A 
ATOM     24  C   UNL     1     -25.618   1.716   9.825  1.00  0.00    +0.002 A 
ATOM     25  C   UNL     1     -24.551   2.160  10.602  1.00  0.00    +0.000 A 
ENDBRANCH  18  20
ENDBRANCH   5  18
TORSDOF 5
ENDMDL
MODEL 2
REMARK VINA RESULT:    -9.599      5.555      8.244
REMARK INTER + INTRA:         -12.195
REMARK INTER:                 -12.087
REMARK INTRA:                  -0.107
REMARK UNBOUND:                -0.351
REMARK SMILES O=S(=O)(O)c1cc(O)c2ccc(Nc3ccccc3)cc2c1
REMARK SMILES IDX 7 1 9 2 10 3 11 4 12 5 20 6 21 7 22 8 5 9 6 10 8 11 2 13
REMARK SMILES IDX 1 14 3 15 4 16 13 18 14 20 15 21 19 22 16 23 18 24 17 25
REMARK H PARENT 8 12 4 17 13 19
ROOT
ATOM      1  C   UNL     1     -33.800   6.521   7.599  1.00  0.00    +0.124 A 
ATOM      2  C   UNL     1     -32.580   7.225   7.456  1.00  0.00    +0.024 A 
ATOM      3  C   UNL     1     -32.431   8.422   6.722  1.00  0.00    +0.015 A 
ATOM      4  C   UNL     1     -31.195   9.070   6.628  1.00  0.00    +0.027 A 
ATOM      5  C   UNL     1     -30.057   8.551   7.250  1.00  0.00    +0.039 A 
ATOM      6  C   UNL     1     -30.193   7.361   7.972  1.00  0.00    +0.035 A 
ATOM      7  C   UNL     1     -31.425   6.689   8.077  1.00  0.00    -0.011 A 
ATOM      8  C   UNL     1     -31.510   5.482   8.789  1.00  0.00    +0.032 A 
ATOM      9  C   UNL     1     -32.730   4.810   8.891  1.00  0.00    +0.098 A 
ATOM     10  C   UNL     1     -33.878   5.318   8.296  1.00  0.00    +0.069 A 
ENDROOT
BRANCH   1  11
ATOM     11  O   UNL     1     -34.985   6.965   7.075  1.00  0.00    -0.507 OA
ATOM     12  H   UNL     1     -35.056   7.921   7.224  1.00  0.00    +0.293 HD
ENDBRANCH   1  11
BRANCH   9  13
ATOM     13  S   UNL     1     -32.797   3.276   9.766  1.00  0.00    +0.294 S 
ATOM     14  O   UNL     1     -31.453   2.751   9.833  1.00  0.00    -0.194 OA
ATOM     15  O   UNL     1     -33.615   3.456  10.946  1.00  0.00    -0.194 OA
BRANCH  13  16
ATOM     16  O   UNL     1     -33.665   2.306   8.812  1.00  0.00    -0.282 OA
ATOM     17  H   UNL     1     -33.043   1.664   8.408  1.00  0.00    +0.234 HD
ENDBRANCH  13  16
ENDBRANCH   9  13
BRANCH   5  18
ATOM     18  N   UNL     1     -28.848   9.260   7.165  1.00  0.00    -0.356 N 
ATOM     19  H   UNL     1     -28.095   8.871   7.722  1.00  0.00    +0.167 HD
BRANCH  18  20
ATOM     20  C   UNL     1     -28.477  10.400   6.431  1.00  0.00    +0.038 A 
ATOM     21  C   UNL     1     -29.288  11.536   6.323  1.00  0.00    +0.026 A 
ATOM     22  C   UNL     1     -27.215  10.432   5.820  1.00  0.00    +0.026 A 
ATOM     23  C   UNL     1     -28.861  12.664   5.615  1.00  0.00    +0.002 A 
ATOM     24  C   UNL     1     -26.783  11.558   5.112  1.00  0.00    +0.002 A 
ATOM     25  C   UNL     1     -27.607  12.675   5.010  1.00  0.00    +0.000 A 
ENDBRANCH  18  20
ENDBRANCH   5  18
TORSDOF 5
ENDMDL
MODEL 3
REMARK VINA RESULT:    -9.083      7.229      9.612
REMARK INTER + INTRA:         -11.558
REMARK INTER:                 -11.068
REMARK INTRA:                  -0.490
REMARK UNBOUND:                -0.351
REMARK SMILES O=S(=O)(O)c1cc(O)c2ccc(Nc3ccccc3)cc2c1
REMARK SMILES IDX 7 1 9 2 10 3 11 4 12 5 20 6 21 7 22 8 5 9 6 10 8 11 2 13
REMARK SMILES IDX 1 14 3 15 4 16 13 18 14 20 15 21 19 22 16 23 18 24 17 25
REMARK H PARENT 8 12 4 17 13 19
ROOT
ATOM      1  C   UNL     1     -34.828   3.713  10.520  1.00  0.00    +0.124 A 
ATOM      2  C   UNL     1     -34.156   4.600   9.643  1.00  0.00    +0.024 A 
ATOM      3  C   UNL     1     -32.752   4.691   9.524  1.00  0.00    +0.015 A 
ATOM      4  C   UNL     1     -32.153   5.586   8.631  1.00  0.00    +0.027 A 
ATOM      5  C   UNL     1     -32.924   6.432   7.829  1.00  0.00    +0.039 A 
ATOM      6  C   UNL     1     -34.315   6.354   7.947  1.00  0.00    +0.035 A 
ATOM      7  C   UNL     1     -34.939   5.465   8.842  1.00  0.00    -0.011 A 
ATOM      8  C   UNL     1     -36.339   5.440   8.947  1.00  0.00    +0.032 A 
ATOM      9  C   UNL     1     -36.962   4.563   9.838  1.00  0.00    +0.098 A 
ATOM     10  C   UNL     1     -36.216   3.700  10.631  1.00  0.00    +0.069 A 
ENDROOT
BRANCH   1  11
ATOM     11  O   UNL     1     -34.174   2.808  11.313  1.00  0.00    -0.507 OA
ATOM     12  H   UNL     1     -34.147   3.147  12.221  1.00  0.00    +0.293 HD
ENDBRANCH   1  11
BRANCH   9  13
ATOM     13  S   UNL     1     -38.724   4.579   9.971  1.00  0.00    +0.294 S 
ATOM     14  O   UNL     1     -39.119   3.400  10.705  1.00  0.00    -0.194 OA
ATOM     15  O   UNL     1     -39.142   5.908  10.363  1.00  0.00    -0.194 OA
BRANCH  13  16
ATOM     16  O   UNL     1     -39.244   4.420   8.451  1.00  0.00    -0.282 OA
ATOM     17  H   UNL     1     -38.885   5.177   7.942  1.00  0.00    +0.234 HD
ENDBRANCH  13  16
ENDBRANCH   9  13
BRANCH   5  18
ATOM     18  N   UNL     1     -32.280   7.281   6.915  1.00  0.00    -0.356 N 
ATOM     19  H   UNL     1     -32.381   7.005   5.945  1.00  0.00    +0.167 HD
BRANCH  18  20
ATOM     20  C   UNL     1     -31.537   8.461   7.091  1.00  0.00    +0.038 A 
ATOM     21  C   UNL     1     -30.189   8.576   6.731  1.00  0.00    +0.026 A 
ATOM     22  C   UNL     1     -32.180   9.597   7.603  1.00  0.00    +0.026 A 
ATOM     23  C   UNL     1     -29.499   9.782   6.888  1.00  0.00    +0.002 A 
ATOM     24  C   UNL     1     -31.496  10.806   7.761  1.00  0.00    +0.002 A 
ATOM     25  C   UNL     1     -30.154  10.898   7.402  1.00  0.00    +0.000 A 
ENDBRANCH  18  20
ENDBRANCH   5  18
TORSDOF 5
ENDMDL
MODEL 4
REMARK VINA RESULT:    -9.055      5.102      7.100
REMARK INTER + INTRA:         -11.523
REMARK INTER:                 -11.032
REMARK INTRA:                  -0.491
REMARK UNBOUND:                -0.351
REMARK SMILES O=S(=O)(O)c1cc(O)c2ccc(Nc3ccccc3)cc2c1
REMARK SMILES IDX 7 1 9 2 10 3 11 4 12 5 20 6 21 7 22 8 5 9 6 10 8 11 2 13
REMARK SMILES IDX 1 14 3 15 4 16 13 18 14 20 15 21 19 22 16 23 18 24 17 25
REMARK H PARENT 8 12 4 17 13 19
ROOT
ATOM      1  C   UNL     1     -33.811   6.269   6.141  1.00  0.00    +0.124 A 
ATOM      2  C   UNL     1     -32.581   6.882   6.482  1.00  0.00    +0.024 A 
ATOM      3  C   UNL     1     -31.934   7.863   5.698  1.00  0.00    +0.015 A 
ATOM      4  C   UNL     1     -30.721   8.433   6.100  1.00  0.00    +0.027 A 
ATOM      5  C   UNL     1     -30.098   8.045   7.288  1.00  0.00    +0.039 A 
ATOM      6  C   UNL     1     -30.727   7.068   8.066  1.00  0.00    +0.035 A 
ATOM      7  C   UNL     1     -31.944   6.477   7.681  1.00  0.00    -0.011 A 
ATOM      8  C   UNL     1     -32.527   5.479   8.479  1.00  0.00    +0.032 A 
ATOM      9  C   UNL     1     -33.732   4.886   8.097  1.00  0.00    +0.098 A 
ATOM     10  C   UNL     1     -34.378   5.270   6.928  1.00  0.00    +0.069 A 
ENDROOT
BRANCH   1  11
ATOM     11  O   UNL     1     -34.531   6.608   5.027  1.00  0.00    -0.507 OA
ATOM     12  H   UNL     1     -33.979   6.472   4.242  1.00  0.00    +0.293 HD
ENDBRANCH   1  11
BRANCH   9  13
ATOM     13  S   UNL     1     -34.421   3.610   9.106  1.00  0.00    +0.294 S 
ATOM     14  O   UNL     1     -35.858   3.730   9.044  1.00  0.00    -0.194 OA
ATOM     15  O   UNL     1     -33.737   2.369   8.808  1.00  0.00    -0.194 OA
BRANCH  13  16
ATOM     16  O   UNL     1     -33.952   3.984  10.604  1.00  0.00    -0.282 OA
ATOM     17  H   UNL     1     -34.756   4.244  11.103  1.00  0.00    +0.234 HD
ENDBRANCH  13  16
ENDBRANCH   9  13
BRANCH   5  18
ATOM     18  N   UNL     1     -28.905   8.678   7.672  1.00  0.00    -0.356 N 
ATOM     19  H   UNL     1     -29.021   9.391   8.384  1.00  0.00    +0.167 HD
BRANCH  18  20
ATOM     20  C   UNL     1     -27.571   8.491   7.270  1.00  0.00    +0.038 A 
ATOM     21  C   UNL     1     -26.751   9.539   6.836  1.00  0.00    +0.026 A 
ATOM     22  C   UNL     1     -27.011   7.209   7.355  1.00  0.00    +0.026 A 
ATOM     23  C   UNL     1     -25.416   9.313   6.483  1.00  0.00    +0.002 A 
ATOM     24  C   UNL     1     -25.676   6.978   7.005  1.00  0.00    +0.002 A 
ATOM     25  C   UNL     1     -24.879   8.032   6.569  1.00  0.00    +0.000 A 
ENDBRANCH  18  20
ENDBRANCH   5  18
TORSDOF 5
ENDMDL
MODEL 5
REMARK VINA RESULT:    -8.766      4.862      7.300
REMARK INTER + INTRA:         -11.167
REMARK INTER:                 -10.797
REMARK INTRA:                  -0.370
REMARK UNBOUND:                -0.351
REMARK SMILES O=S(=O)(O)c1cc(O)c2ccc(Nc3ccccc3)cc2c1
REMARK SMILES IDX 7 1 9 2 10 3 11 4 12 5 20 6 21 7 22 8 5 9 6 10 8 11 2 13
REMARK SMILES IDX 1 14 3 15 4 16 13 18 14 20 15 21 19 22 16 23 18 24 17 25
REMARK H PARENT 8 12 4 17 13 19
ROOT
ATOM      1  C   UNL     1     -24.836   3.535  10.919  1.00  0.00    +0.124 A 
ATOM      2  C   UNL     1     -26.053   2.824  11.063  1.00  0.00    +0.024 A 
ATOM      3  C   UNL     1     -26.255   1.767  11.977  1.00  0.00    +0.015 A 
ATOM      4  C   UNL     1     -27.488   1.112  12.072  1.00  0.00    +0.027 A 
ATOM      5  C   UNL     1     -28.563   1.473  11.257  1.00  0.00    +0.039 A 
ATOM      6  C   UNL     1     -28.369   2.514  10.343  1.00  0.00    +0.035 A 
ATOM      7  C   UNL     1     -27.137   3.184  10.226  1.00  0.00    -0.011 A 
ATOM      8  C   UNL     1     -26.979   4.204   9.275  1.00  0.00    +0.032 A 
ATOM      9  C   UNL     1     -25.756   4.868   9.153  1.00  0.00    +0.098 A 
ATOM     10  C   UNL     1     -24.679   4.538   9.965  1.00  0.00    +0.069 A 
ENDROOT
BRANCH   1  11
ATOM     11  O   UNL     1     -23.736   3.298  11.698  1.00  0.00    -0.507 OA
ATOM     12  H   UNL     1     -23.018   3.885  11.415  1.00  0.00    +0.293 HD
ENDBRANCH   1  11
BRANCH   9  13
ATOM     13  S   UNL     1     -25.579   6.125   7.923  1.00  0.00    +0.294 S 
ATOM     14  O   UNL     1     -25.186   5.480   6.692  1.00  0.00    -0.194 OA
ATOM     15  O   UNL     1     -26.723   7.008   8.001  1.00  0.00    -0.194 OA
BRANCH  13  16
ATOM     16  O   UNL     1     -24.338   7.018   8.438  1.00  0.00    -0.282 OA
ATOM     17  H   UNL     1     -24.650   7.947   8.486  1.00  0.00    +0.234 HD
ENDBRANCH  13  16
ENDBRANCH   9  13
BRANCH   5  18
ATOM     18  N   UNL     1     -29.794   0.817  11.420  1.00  0.00    -0.356 N 
ATOM     19  H   UNL     1     -29.716  -0.148  11.722  1.00  0.00    +0.167 HD
BRANCH  18  20
ATOM     20  C   UNL     1     -31.121   1.256  11.266  1.00  0.00    +0.038 A 
ATOM     21  C   UNL     1     -31.655   1.652  10.034  1.00  0.00    +0.026 A 
ATOM     22  C   UNL     1     -31.971   1.250  12.381  1.00  0.00    +0.026 A 
ATOM     23  C   UNL     1     -32.993   2.044   9.920  1.00  0.00    +0.002 A 
ATOM     24  C   UNL     1     -33.309   1.639  12.272  1.00  0.00    +0.002 A 
ATOM     25  C   UNL     1     -33.820   2.037  11.039  1.00  0.00    +0.000 A 
ENDBRANCH  18  20
ENDBRANCH   5  18
TORSDOF 5
ENDMDL
MODEL 6
REMARK VINA RESULT:    -8.710      9.269     11.362
REMARK INTER + INTRA:         -11.097
REMARK INTER:                 -10.604
REMARK INTRA:                  -0.493
REMARK UNBOUND:                -0.351
REMARK SMILES O=S(=O)(O)c1cc(O)c2ccc(Nc3ccccc3)cc2c1
REMARK SMILES IDX 7 1 9 2 10 3 11 4 12 5 20 6 21 7 22 8 5 9 6 10 8 11 2 13
REMARK SMILES IDX 1 14 3 15 4 16 13 18 14 20 15 21 19 22 16 23 18 24 17 25
REMARK H PARENT 8 12 4 17 13 19
ROOT
ATOM      1  C   UNL     1     -29.229   1.091  11.577  1.00  0.00    +0.124 A 
ATOM      2  C   UNL     1     -30.604   1.331  11.339  1.00  0.00    +0.024 A 
ATOM      3  C   UNL     1     -31.136   1.761  10.103  1.00  0.00    +0.015 A 
ATOM      4  C   UNL     1     -32.509   1.973   9.935  1.00  0.00    +0.027 A 
ATOM      5  C   UNL     1     -33.405   1.777  10.989  1.00  0.00    +0.039 A 
ATOM      6  C   UNL     1     -32.886   1.360  12.219  1.00  0.00    +0.035 A 
ATOM      7  C   UNL     1     -31.509   1.145  12.413  1.00  0.00    -0.011 A 
ATOM      8  C   UNL     1     -31.028   0.754  13.672  1.00  0.00    +0.032 A 
ATOM      9  C   UNL     1     -29.661   0.544  13.870  1.00  0.00    +0.098 A 
ATOM     10  C   UNL     1     -28.754   0.715  12.832  1.00  0.00    +0.069 A 
ENDROOT
BRANCH   1  11
ATOM     11  O   UNL     1     -28.272   1.203  10.604  1.00  0.00    -0.507 OA
ATOM     12  H   UNL     1     -27.814   2.051  10.710  1.00  0.00    +0.293 HD
ENDBRANCH   1  11
BRANCH   9  13
ATOM     13  S   UNL     1     -29.085   0.085  15.476  1.00  0.00    +0.294 S 
ATOM     14  O   UNL     1     -29.963  -0.945  15.978  1.00  0.00    -0.194 OA
ATOM     15  O   UNL     1     -27.649  -0.086  15.416  1.00  0.00    -0.194 OA
BRANCH  13  16
ATOM     16  O   UNL     1     -29.301   1.408  16.374  1.00  0.00    -0.282 OA
ATOM     17  H   UNL     1     -28.972   1.204  17.276  1.00  0.00    +0.234 HD
ENDBRANCH  13  16
ENDBRANCH   9  13
BRANCH   5  18
ATOM     18  N   UNL     1     -34.779   1.959  10.760  1.00  0.00    -0.356 N 
ATOM     19  H   UNL     1     -35.265   1.124  10.454  1.00  0.00    +0.167 HD
BRANCH  18  20
ATOM     20  C   UNL     1     -35.614   3.081  10.899  1.00  0.00    +0.038 A 
ATOM     21  C   UNL     1     -35.125   4.374  11.122  1.00  0.00    +0.026 A 
ATOM     22  C   UNL     1     -36.999   2.917  10.756  1.00  0.00    +0.026 A 
ATOM     23  C   UNL     1     -35.992   5.467  11.215  1.00  0.00    +0.002 A 
ATOM     24  C   UNL     1     -37.870   4.007  10.845  1.00  0.00    +0.002 A 
ATOM     25  C   UNL     1     -37.365   5.284  11.075  1.00  0.00    +0.000 A 
ENDBRANCH  18  20
ENDBRANCH   5  18
TORSDOF 5
ENDMDL
MODEL 7
REMARK VINA RESULT:    -7.241     12.136     14.795
REMARK INTER + INTRA:          -9.284
REMARK INTER:                  -8.819
REMARK INTRA:                  -0.466
REMARK UNBOUND:                -0.351
REMARK SMILES O=S(=O)(O)c1cc(O)c2ccc(Nc3ccccc3)cc2c1
REMARK SMILES IDX 7 1 9 2 10 3 11 4 12 5 20 6 21 7 22 8 5 9 6 10 8 11 2 13
REMARK SMILES IDX 1 14 3 15 4 16 13 18 14 20 15 21 19 22 16 23 18 24 17 25
REMARK H PARENT 8 12 4 17 13 19
ROOT
ATOM      1  C   UNL     1     -18.736   2.628  -1.576  1.00  0.00    +0.124 A 
ATOM      2  C   UNL     1     -18.774   3.973  -1.135  1.00  0.00    +0.024 A 
ATOM      3  C   UNL     1     -19.239   4.383   0.133  1.00  0.00    +0.015 A 
ATOM      4  C   UNL     1     -19.242   5.732   0.506  1.00  0.00    +0.027 A 
ATOM      5  C   UNL     1     -18.793   6.725  -0.368  1.00  0.00    +0.039 A 
ATOM      6  C   UNL     1     -18.339   6.328  -1.629  1.00  0.00    +0.035 A 
ATOM      7  C   UNL     1     -18.331   4.979  -2.029  1.00  0.00    -0.011 A 
ATOM      8  C   UNL     1     -17.893   4.628  -3.315  1.00  0.00    +0.032 A 
ATOM      9  C   UNL     1     -17.888   3.291  -3.718  1.00  0.00    +0.098 A 
ATOM     10  C   UNL     1     -18.312   2.285  -2.858  1.00  0.00    +0.069 A 
ENDROOT
BRANCH   1  11
ATOM     11  O   UNL     1     -19.103   1.572  -0.785  1.00  0.00    -0.507 OA
ATOM     12  H   UNL     1     -18.826   1.750   0.126  1.00  0.00    +0.293 HD
ENDBRANCH   1  11
BRANCH   9  13
ATOM     13  S   UNL     1     -17.362   2.886  -5.355  1.00  0.00    +0.294 S 
ATOM     14  O   UNL     1     -18.277   1.900  -5.878  1.00  0.00    -0.194 OA
ATOM     15  O   UNL     1     -17.067   4.116  -6.059  1.00  0.00    -0.194 OA
BRANCH  13  16
ATOM     16  O   UNL     1     -15.926   2.178  -5.152  1.00  0.00    -0.282 OA
ATOM     17  H   UNL     1     -15.251   2.774  -5.541  1.00  0.00    +0.234 HD
ENDBRANCH  13  16
ENDBRANCH   9  13
BRANCH   5  18
ATOM     18  N   UNL     1     -18.773   8.060   0.068  1.00  0.00    -0.356 N 
ATOM     19  H   UNL     1     -17.880   8.365   0.437  1.00  0.00    +0.167 HD
BRANCH  18  20
ATOM     20  C   UNL     1     -19.757   9.064   0.067  1.00  0.00    +0.038 A 
ATOM     21  C   UNL     1     -21.123   8.794  -0.075  1.00  0.00    +0.026 A 
ATOM     22  C   UNL     1     -19.367  10.396   0.270  1.00  0.00    +0.026 A 
ATOM     23  C   UNL     1     -22.071   9.821  -0.031  1.00  0.00    +0.002 A 
ATOM     24  C   UNL     1     -20.311  11.426   0.317  1.00  0.00    +0.002 A 
ATOM     25  C   UNL     1     -21.664  11.138   0.167  1.00  0.00    +0.000 A 
ENDBRANCH  18  20
ENDBRANCH   5  18
TORSDOF 5
ENDMDL
MODEL 8
REMARK VINA RESULT:    -7.237     10.937     12.563
REMARK INTER + INTRA:          -9.280
REMARK INTER:                  -8.937
REMARK INTRA:                  -0.343
REMARK UNBOUND:                -0.351
REMARK SMILES O=S(=O)(O)c1cc(O)c2ccc(Nc3ccccc3)cc2c1
REMARK SMILES IDX 7 1 9 2 10 3 11 4 12 5 20 6 21 7 22 8 5 9 6 10 8 11 2 13
REMARK SMILES IDX 1 14 3 15 4 16 13 18 14 20 15 21 19 22 16 23 18 24 17 25
REMARK H PARENT 8 12 4 17 13 19
ROOT
ATOM      1  C   UNL     1     -21.380  10.641  -1.079  1.00  0.00    +0.124 A 
ATOM      2  C   UNL     1     -20.665   9.468  -0.735  1.00  0.00    +0.024 A 
ATOM      3  C   UNL     1     -20.753   8.819   0.516  1.00  0.00    +0.015 A 
ATOM      4  C   UNL     1     -20.022   7.657   0.786  1.00  0.00    +0.027 A 
ATOM      5  C   UNL     1     -19.170   7.100  -0.170  1.00  0.00    +0.039 A 
ATOM      6  C   UNL     1     -19.071   7.740  -1.409  1.00  0.00    +0.035 A 
ATOM      7  C   UNL     1     -19.792   8.913  -1.702  1.00  0.00    -0.011 A 
ATOM      8  C   UNL     1     -19.641   9.539  -2.950  1.00  0.00    +0.032 A 
ATOM      9  C   UNL     1     -20.351  10.705  -3.243  1.00  0.00    +0.098 A 
ATOM     10  C   UNL     1     -21.217  11.267  -2.313  1.00  0.00    +0.069 A 
ENDROOT
BRANCH   1  11
ATOM     11  O   UNL     1     -22.278  11.242  -0.239  1.00  0.00    -0.507 OA
ATOM     12  H   UNL     1     -21.908  11.258   0.657  1.00  0.00    +0.293 HD
ENDBRANCH   1  11
BRANCH   9  13
ATOM     13  S   UNL     1     -20.112  11.487  -4.809  1.00  0.00    +0.294 S 
ATOM     14  O   UNL     1     -18.759  11.988  -4.848  1.00  0.00    -0.194 OA
ATOM     15  O   UNL     1     -20.645  10.622  -5.840  1.00  0.00    -0.194 OA
BRANCH  13  16
ATOM     16  O   UNL     1     -21.113  12.754  -4.782  1.00  0.00    -0.282 OA
ATOM     17  H   UNL     1     -22.026  12.400  -4.725  1.00  0.00    +0.234 HD
ENDBRANCH  13  16
ENDBRANCH   9  13
BRANCH   5  18
ATOM     18  N   UNL     1     -18.492   5.907   0.131  1.00  0.00    -0.356 N 
ATOM     19  H   UNL     1     -17.894   5.962   0.948  1.00  0.00    +0.167 HD
BRANCH  18  20
ATOM     20  C   UNL     1     -18.504   4.640  -0.477  1.00  0.00    +0.038 A 
ATOM     21  C   UNL     1     -18.411   4.456  -1.861  1.00  0.00    +0.026 A 
ATOM     22  C   UNL     1     -18.560   3.499   0.336  1.00  0.00    +0.026 A 
ATOM     23  C   UNL     1     -18.388   3.174  -2.420  1.00  0.00    +0.002 A 
ATOM     24  C   UNL     1     -18.535   2.215  -0.217  1.00  0.00    +0.002 A 
ATOM     25  C   UNL     1     -18.448   2.053  -1.597  1.00  0.00    +0.000 A 
ENDBRANCH  18  20
ENDBRANCH   5  18
TORSDOF 5
ENDMDL
