REMARK SMILES CCCCCCCCCCCCCCCC(=O)CCCCCCCCCCCCCCC
REMARK SMILES IDX 16 1 17 2 15 3 14 4 13 5 12 6 11 7 10 8 9 9 8 10 7 11 6 12
REMARK SMILES IDX 5 13 4 14 3 15 2 16 1 17 18 18 19 19 20 20 21 21 22 22 23 23
REMARK SMILES IDX 24 24 25 25 26 26 27 27 28 28 29 29 30 30 31 31 32 32
REMARK H PARENT
ROOT
ATOM      1  C   UNL     1       1.783  -0.502   0.868  1.00  0.00    +0.132 C 
ATOM      2  O   UNL     1       2.936  -0.911   1.012  1.00  0.00    -0.300 OA
ENDROOT
BRANCH   1   3
ATOM      3  C   UNL     1       0.689  -1.431   0.373  1.00  0.00    +0.075 C 
BRANCH   3   4
ATOM      4  C   UNL     1      -0.087  -0.842  -0.804  1.00  0.00    +0.008 C 
BRANCH   4   5
ATOM      5  C   UNL     1      -1.056  -1.831  -1.457  1.00  0.00    +0.000 C 
BRANCH   5   6
ATOM      6  C   UNL     1      -2.085  -2.473  -0.519  1.00  0.00    +0.000 C 
BRANCH   6   7
ATOM      7  C   UNL     1      -2.960  -1.458   0.222  1.00  0.00    +0.000 C 
BRANCH   7   8
ATOM      8  C   UNL     1      -4.024  -2.158   1.072  1.00  0.00    +0.000 C 
BRANCH   8   9
ATOM      9  C   UNL     1      -4.751  -1.214   2.033  1.00  0.00    +0.000 C 
BRANCH   9  10
ATOM     10  C   UNL     1      -5.476  -0.029   1.388  1.00  0.00    +0.000 C 
BRANCH  10  11
ATOM     11  C   UNL     1      -6.567  -0.447   0.399  1.00  0.00    -0.000 C 
BRANCH  11  12
ATOM     12  C   UNL     1      -7.376   0.768  -0.067  1.00  0.00    -0.000 C 
BRANCH  12  13
ATOM     13  C   UNL     1      -8.432   0.431  -1.123  1.00  0.00    -0.000 C 
BRANCH  13  14
ATOM     14  C   UNL     1      -9.543  -0.483  -0.603  1.00  0.00    -0.000 C 
BRANCH  14  15
ATOM     15  C   UNL     1     -10.651  -0.653  -1.647  1.00  0.00    -0.000 C 
BRANCH  15  16
ATOM     16  C   UNL     1     -11.718  -1.669  -1.235  1.00  0.00    -0.003 C 
ATOM     17  C   UNL     1     -12.534  -1.236  -0.026  1.00  0.00    +0.004 C 
ENDBRANCH  15  16
ENDBRANCH  14  15
ENDBRANCH  13  14
ENDBRANCH  12  13
ENDBRANCH  11  12
ENDBRANCH  10  11
ENDBRANCH   9  10
ENDBRANCH   8   9
ENDBRANCH   7   8
ENDBRANCH   6   7
ENDBRANCH   5   6
ENDBRANCH   4   5
ENDBRANCH   3   4
ENDBRANCH   1   3
BRANCH   1  18
ATOM     18  C   UNL     1       1.397   0.935   1.174  1.00  0.00    +0.075 C 
BRANCH  18  19
ATOM     19  C   UNL     1       2.278   1.569   2.253  1.00  0.00    +0.008 C 
BRANCH  19  20
ATOM     20  C   UNL     1       2.064   3.085   2.367  1.00  0.00    +0.000 C 
BRANCH  20  21
ATOM     21  C   UNL     1       2.752   3.877   1.249  1.00  0.00    +0.000 C 
BRANCH  21  22
ATOM     22  C   UNL     1       4.266   4.006   1.463  1.00  0.00    +0.000 C 
BRANCH  22  23
ATOM     23  C   UNL     1       5.038   4.236   0.159  1.00  0.00    +0.000 C 
BRANCH  23  24
ATOM     24  C   UNL     1       5.203   2.974  -0.704  1.00  0.00    +0.000 C 
BRANCH  24  25
ATOM     25  C   UNL     1       6.125   1.902  -0.106  1.00  0.00    +0.000 C 
BRANCH  25  26
ATOM     26  C   UNL     1       7.607   2.285  -0.178  1.00  0.00    -0.000 C 
BRANCH  26  27
ATOM     27  C   UNL     1       8.522   1.341   0.610  1.00  0.00    -0.000 C 
BRANCH  27  28
ATOM     28  C   UNL     1       8.438  -0.143   0.239  1.00  0.00    -0.000 C 
BRANCH  28  29
ATOM     29  C   UNL     1       8.783  -0.425  -1.225  1.00  0.00    -0.000 C 
BRANCH  29  30
ATOM     30  C   UNL     1       8.947  -1.917  -1.532  1.00  0.00    -0.000 C 
BRANCH  30  31
ATOM     31  C   UNL     1       7.661  -2.722  -1.327  1.00  0.00    -0.003 C 
ATOM     32  C   UNL     1       7.834  -4.165  -1.771  1.00  0.00    +0.004 C 
ENDBRANCH  30  31
ENDBRANCH  29  30
ENDBRANCH  28  29
ENDBRANCH  27  28
ENDBRANCH  26  27
ENDBRANCH  25  26
ENDBRANCH  24  25
ENDBRANCH  23  24
ENDBRANCH  22  23
ENDBRANCH  21  22
ENDBRANCH  20  21
ENDBRANCH  19  20
ENDBRANCH  18  19
ENDBRANCH   1  18
TORSDOF 28
