REMARK SMILES CCCCCC(=O)C(C)(C)C
REMARK SMILES IDX 4 1 3 2 2 3 1 4 5 5 6 6 7 7 8 8 9 9 10 10 11 11
REMARK H PARENT
ROOT
ATOM      1  C   UNL     1       1.328   1.634  -0.400  1.00  0.00    +0.008 C 
ENDROOT
BRANCH   1   2
ATOM      2  C   UNL     1       2.140   0.556  -1.129  1.00  0.00    +0.000 C 
BRANCH   2   3
ATOM      3  C   UNL     1       2.660  -0.591  -0.260  1.00  0.00    -0.003 C 
ATOM      4  C   UNL     1       3.565  -0.135   0.874  1.00  0.00    +0.004 C 
ENDBRANCH   2   3
ENDBRANCH   1   2
BRANCH   1   5
ATOM      5  C   UNL     1       0.085   1.123   0.328  1.00  0.00    +0.076 C 
BRANCH   5   6
ATOM      6  C   UNL     1      -0.994   0.584  -0.607  1.00  0.00    +0.138 C 
ATOM      7  O   UNL     1      -1.026   0.921  -1.793  1.00  0.00    -0.299 OA
BRANCH   6   8
ATOM      8  C   UNL     1      -2.047  -0.378  -0.018  1.00  0.00    +0.021 C 
ATOM      9  C   UNL     1      -3.197  -0.558  -1.026  1.00  0.00    +0.019 C 
ATOM     10  C   UNL     1      -2.626   0.187   1.285  1.00  0.00    +0.019 C 
ATOM     11  C   UNL     1      -1.394  -1.743   0.235  1.00  0.00    +0.019 C 
ENDBRANCH   6   8
ENDBRANCH   5   6
ENDBRANCH   1   5
TORSDOF 5
