MODEL 1
REMARK VINA RESULT:    -6.287      0.000      0.000
REMARK INTER + INTRA:          -7.463
REMARK INTER:                  -7.206
REMARK INTRA:                  -0.257
REMARK UNBOUND:                -0.257
REMARK SMILES O=C(O)c1cnc(O)nc1O
REMARK SMILES IDX 4 1 10 2 9 3 7 4 6 5 5 6 2 7 1 8 3 9 11 11 8 13
REMARK H PARENT 3 10 11 12 8 14
ROOT
ATOM      1  C   UNL     1     -33.715  -1.363   0.421  1.00  0.00    +0.140 A 
ATOM      2  C   UNL     1     -34.496  -2.265  -0.269  1.00  0.00    +0.232 A 
ATOM      3  N   UNL     1     -34.745  -2.225  -1.592  1.00  0.00    -0.159 NA
ATOM      4  C   UNL     1     -34.160  -1.207  -2.228  1.00  0.00    +0.317 A 
ATOM      5  N   UNL     1     -33.382  -0.263  -1.699  1.00  0.00    -0.203 NA
ATOM      6  C   UNL     1     -33.175  -0.365  -0.365  1.00  0.00    +0.138 A 
ENDROOT
BRANCH   1   7
ATOM      7  C   UNL     1     -33.469  -1.447   1.870  1.00  0.00    +0.342 C 
ATOM      8  O   UNL     1     -34.084  -2.089   2.697  1.00  0.00    -0.246 OA
BRANCH   7   9
ATOM      9  O   UNL     1     -32.419  -0.690   2.244  1.00  0.00    -0.477 OA
ATOM     10  H   UNL     1     -32.833   0.140   2.566  1.00  0.00    +0.297 HD
ENDBRANCH   7   9
ENDBRANCH   1   7
BRANCH   2  11
ATOM     11  O   UNL     1     -35.110  -3.313   0.335  1.00  0.00    -0.493 OA
ATOM     12  H   UNL     1     -36.046  -3.054   0.294  1.00  0.00    +0.295 HD
ENDBRANCH   2  11
BRANCH   4  13
ATOM     13  O   UNL     1     -34.399  -1.148  -3.562  1.00  0.00    -0.479 OA
ATOM     14  H   UNL     1     -34.480  -2.095  -3.759  1.00  0.00    +0.297 HD
ENDBRANCH   4  13
TORSDOF 4
ENDMDL
MODEL 2
REMARK VINA RESULT:    -5.957     14.909     15.724
REMARK INTER + INTRA:          -7.085
REMARK INTER:                  -6.833
REMARK INTRA:                  -0.252
REMARK UNBOUND:                -0.257
REMARK SMILES O=C(O)c1cnc(O)nc1O
REMARK SMILES IDX 4 1 10 2 9 3 7 4 6 5 5 6 2 7 1 8 3 9 11 11 8 13
REMARK H PARENT 3 10 11 12 8 14
ROOT
ATOM      1  C   UNL     1     -27.651  11.428   5.807  1.00  0.00    +0.140 A 
ATOM      2  C   UNL     1     -27.754  10.294   6.585  1.00  0.00    +0.232 A 
ATOM      3  N   UNL     1     -26.747   9.443   6.855  1.00  0.00    -0.159 NA
ATOM      4  C   UNL     1     -25.582   9.779   6.296  1.00  0.00    +0.317 A 
ATOM      5  N   UNL     1     -25.331  10.837   5.525  1.00  0.00    -0.203 NA
ATOM      6  C   UNL     1     -26.389  11.649   5.295  1.00  0.00    +0.138 A 
ENDROOT
BRANCH   1   7
ATOM      7  C   UNL     1     -28.782  12.332   5.539  1.00  0.00    +0.342 C 
ATOM      8  O   UNL     1     -29.929  12.228   5.922  1.00  0.00    -0.246 OA
BRANCH   7   9
ATOM      9  O   UNL     1     -28.417  13.374   4.768  1.00  0.00    -0.477 OA
ATOM     10  H   UNL     1     -27.983  13.989   5.398  1.00  0.00    +0.297 HD
ENDBRANCH   7   9
ENDBRANCH   1   7
BRANCH   2  11
ATOM     11  O   UNL     1     -28.916   9.914   7.173  1.00  0.00    -0.493 OA
ATOM     12  H   UNL     1     -28.926  10.456   7.979  1.00  0.00    +0.295 HD
ENDBRANCH   2  11
BRANCH   4  13
ATOM     13  O   UNL     1     -24.554   8.934   6.555  1.00  0.00    -0.479 OA
ATOM     14  H   UNL     1     -23.979   9.133   5.799  1.00  0.00    +0.297 HD
ENDBRANCH   4  13
TORSDOF 4
ENDMDL
MODEL 3
REMARK VINA RESULT:    -5.937     14.447     15.532
REMARK INTER + INTRA:          -7.062
REMARK INTER:                  -6.801
REMARK INTRA:                  -0.261
REMARK UNBOUND:                -0.257
REMARK SMILES O=C(O)c1cnc(O)nc1O
REMARK SMILES IDX 4 1 10 2 9 3 7 4 6 5 5 6 2 7 1 8 3 9 11 11 8 13
REMARK H PARENT 3 10 11 12 8 14
ROOT
ATOM      1  C   UNL     1     -27.658  10.411   6.260  1.00  0.00    +0.140 A 
ATOM      2  C   UNL     1     -26.719  11.179   5.604  1.00  0.00    +0.232 A 
ATOM      3  N   UNL     1     -26.940  12.400   5.082  1.00  0.00    -0.159 NA
ATOM      4  C   UNL     1     -28.187  12.847   5.247  1.00  0.00    +0.317 A 
ATOM      5  N   UNL     1     -29.196  12.223   5.855  1.00  0.00    -0.203 NA
ATOM      6  C   UNL     1     -28.902  11.001   6.355  1.00  0.00    +0.138 A 
ENDROOT
BRANCH   1   7
ATOM      7  C   UNL     1     -27.370   9.079   6.816  1.00  0.00    +0.342 C 
ATOM      8  O   UNL     1     -27.611   8.666   7.932  1.00  0.00    -0.246 OA
BRANCH   7   9
ATOM      9  O   UNL     1     -26.762   8.282   5.915  1.00  0.00    -0.477 OA
ATOM     10  H   UNL     1     -27.171   8.542   5.061  1.00  0.00    +0.297 HD
ENDBRANCH   7   9
ENDBRANCH   1   7
BRANCH   2  11
ATOM     11  O   UNL     1     -25.440  10.765   5.413  1.00  0.00    -0.493 OA
ATOM     12  H   UNL     1     -25.503   9.813   5.597  1.00  0.00    +0.295 HD
ENDBRANCH   2  11
BRANCH   4  13
ATOM     13  O   UNL     1     -28.431  14.076   4.728  1.00  0.00    -0.479 OA
ATOM     14  H   UNL     1     -27.521  14.383   4.591  1.00  0.00    +0.297 HD
ENDBRANCH   4  13
TORSDOF 4
ENDMDL
MODEL 4
REMARK VINA RESULT:    -5.926     14.884     15.734
REMARK INTER + INTRA:          -7.049
REMARK INTER:                  -6.816
REMARK INTRA:                  -0.234
REMARK UNBOUND:                -0.257
REMARK SMILES O=C(O)c1cnc(O)nc1O
REMARK SMILES IDX 4 1 10 2 9 3 7 4 6 5 5 6 2 7 1 8 3 9 11 11 8 13
REMARK H PARENT 3 10 11 12 8 14
ROOT
ATOM      1  C   UNL     1     -27.632  11.209   5.759  1.00  0.00    +0.140 A 
ATOM      2  C   UNL     1     -28.486  12.252   5.466  1.00  0.00    +0.232 A 
ATOM      3  N   UNL     1     -29.770  12.339   5.863  1.00  0.00    -0.159 NA
ATOM      4  C   UNL     1     -30.187  11.303   6.595  1.00  0.00    +0.317 A 
ATOM      5  N   UNL     1     -29.482  10.232   6.956  1.00  0.00    -0.203 NA
ATOM      6  C   UNL     1     -28.201  10.210   6.522  1.00  0.00    +0.138 A 
ENDROOT
BRANCH   1   7
ATOM      7  C   UNL     1     -26.234  11.157   5.303  1.00  0.00    +0.342 C 
ATOM      8  O   UNL     1     -25.257  10.789   5.925  1.00  0.00    -0.246 OA
BRANCH   7   9
ATOM      9  O   UNL     1     -26.105  11.588   4.033  1.00  0.00    -0.477 OA
ATOM     10  H   UNL     1     -26.270  12.553   4.097  1.00  0.00    +0.297 HD
ENDBRANCH   7   9
ENDBRANCH   1   7
BRANCH   2  11
ATOM     11  O   UNL     1     -28.106  13.324   4.727  1.00  0.00    -0.493 OA
ATOM     12  H   UNL     1     -28.824  13.956   4.899  1.00  0.00    +0.295 HD
ENDBRANCH   2  11
BRANCH   4  13
ATOM     13  O   UNL     1     -31.479  11.372   7.005  1.00  0.00    -0.479 OA
ATOM     14  H   UNL     1     -31.596  10.468   7.339  1.00  0.00    +0.297 HD
ENDBRANCH   4  13
TORSDOF 4
ENDMDL
MODEL 5
REMARK VINA RESULT:    -5.808     14.813     15.474
REMARK INTER + INTRA:          -6.914
REMARK INTER:                  -6.685
REMARK INTRA:                  -0.229
REMARK UNBOUND:                -0.257
REMARK SMILES O=C(O)c1cnc(O)nc1O
REMARK SMILES IDX 4 1 10 2 9 3 7 4 6 5 5 6 2 7 1 8 3 9 11 11 8 13
REMARK H PARENT 3 10 11 12 8 14
ROOT
ATOM      1  C   UNL     1     -29.297  11.523   6.311  1.00  0.00    +0.140 A 
ATOM      2  C   UNL     1     -28.409  10.505   6.590  1.00  0.00    +0.232 A 
ATOM      3  N   UNL     1     -27.137  10.443   6.155  1.00  0.00    -0.159 NA
ATOM      4  C   UNL     1     -26.766  11.479   5.399  1.00  0.00    +0.317 A 
ATOM      5  N   UNL     1     -27.508  12.529   5.046  1.00  0.00    -0.203 NA
ATOM      6  C   UNL     1     -28.776  12.525   5.518  1.00  0.00    +0.138 A 
ENDROOT
BRANCH   1   7
ATOM      7  C   UNL     1     -30.682  11.549   6.810  1.00  0.00    +0.342 C 
ATOM      8  O   UNL     1     -31.064  11.467   7.960  1.00  0.00    -0.246 OA
BRANCH   7   9
ATOM      9  O   UNL     1     -31.572  11.680   5.807  1.00  0.00    -0.477 OA
ATOM     10  H   UNL     1     -31.828  10.754   5.601  1.00  0.00    +0.297 HD
ENDBRANCH   7   9
ENDBRANCH   1   7
BRANCH   2  11
ATOM     11  O   UNL     1     -28.741   9.434   7.353  1.00  0.00    -0.493 OA
ATOM     12  H   UNL     1     -29.529   9.093   6.896  1.00  0.00    +0.295 HD
ENDBRANCH   2  11
BRANCH   4  13
ATOM     13  O   UNL     1     -25.487  11.436   4.949  1.00  0.00    -0.479 OA
ATOM     14  H   UNL     1     -25.647  11.434   3.992  1.00  0.00    +0.297 HD
ENDBRANCH   4  13
TORSDOF 4
ENDMDL
MODEL 6
REMARK VINA RESULT:    -5.756      1.592      2.319
REMARK INTER + INTRA:          -6.855
REMARK INTER:                  -6.594
REMARK INTRA:                  -0.261
REMARK UNBOUND:                -0.257
REMARK SMILES O=C(O)c1cnc(O)nc1O
REMARK SMILES IDX 4 1 10 2 9 3 7 4 6 5 5 6 2 7 1 8 3 9 11 11 8 13
REMARK H PARENT 3 10 11 12 8 14
ROOT
ATOM      1  C   UNL     1     -33.193  -0.223   1.165  1.00  0.00    +0.140 A 
ATOM      2  C   UNL     1     -33.619  -1.483   1.530  1.00  0.00    +0.232 A 
ATOM      3  N   UNL     1     -34.080  -2.423   0.683  1.00  0.00    -0.159 NA
ATOM      4  C   UNL     1     -34.099  -2.043  -0.597  1.00  0.00    +0.317 A 
ATOM      5  N   UNL     1     -33.721  -0.867  -1.097  1.00  0.00    -0.203 NA
ATOM      6  C   UNL     1     -33.270   0.029  -0.189  1.00  0.00    +0.138 A 
ENDROOT
BRANCH   1   7
ATOM      7  C   UNL     1     -32.696   0.773   2.128  1.00  0.00    +0.342 C 
ATOM      8  O   UNL     1     -33.158   1.869   2.377  1.00  0.00    -0.246 OA
BRANCH   7   9
ATOM      9  O   UNL     1     -31.590   0.343   2.767  1.00  0.00    -0.477 OA
ATOM     10  H   UNL     1     -30.875   0.905   2.399  1.00  0.00    +0.297 HD
ENDBRANCH   7   9
ENDBRANCH   1   7
BRANCH   2  11
ATOM     11  O   UNL     1     -33.618  -1.911   2.817  1.00  0.00    -0.493 OA
ATOM     12  H   UNL     1     -33.451  -2.864   2.716  1.00  0.00    +0.295 HD
ENDBRANCH   2  11
BRANCH   4  13
ATOM     13  O   UNL     1     -34.560  -2.976  -1.467  1.00  0.00    -0.479 OA
ATOM     14  H   UNL     1     -35.004  -3.577  -0.847  1.00  0.00    +0.297 HD
ENDBRANCH   4  13
TORSDOF 4
ENDMDL
MODEL 7
REMARK VINA RESULT:    -5.617     14.358     15.254
REMARK INTER + INTRA:          -6.695
REMARK INTER:                  -6.434
REMARK INTRA:                  -0.261
REMARK UNBOUND:                -0.257
REMARK SMILES O=C(O)c1cnc(O)nc1O
REMARK SMILES IDX 4 1 10 2 9 3 7 4 6 5 5 6 2 7 1 8 3 9 11 11 8 13
REMARK H PARENT 3 10 11 12 8 14
ROOT
ATOM      1  C   UNL     1     -27.992  10.315   6.503  1.00  0.00    +0.140 A 
ATOM      2  C   UNL     1     -29.129  11.085   6.626  1.00  0.00    +0.232 A 
ATOM      3  N   UNL     1     -29.323  12.284   6.045  1.00  0.00    -0.159 NA
ATOM      4  C   UNL     1     -28.295  12.705   5.305  1.00  0.00    +0.317 A 
ATOM      5  N   UNL     1     -27.139  12.076   5.094  1.00  0.00    -0.203 NA
ATOM      6  C   UNL     1     -27.014  10.876   5.708  1.00  0.00    +0.138 A 
ENDROOT
BRANCH   1   7
ATOM      7  C   UNL     1     -27.825   9.007   7.156  1.00  0.00    +0.342 C 
ATOM      8  O   UNL     1     -28.689   8.218   7.484  1.00  0.00    -0.246 OA
BRANCH   7   9
ATOM      9  O   UNL     1     -26.528   8.725   7.387  1.00  0.00    -0.477 OA
ATOM     10  H   UNL     1     -26.046   9.359   6.813  1.00  0.00    +0.297 HD
ENDBRANCH   7   9
ENDBRANCH   1   7
BRANCH   2  11
ATOM     11  O   UNL     1     -30.198  10.698   7.367  1.00  0.00    -0.493 OA
ATOM     12  H   UNL     1     -29.886   9.862   7.755  1.00  0.00    +0.295 HD
ENDBRANCH   2  11
BRANCH   4  13
ATOM     13  O   UNL     1     -28.469  13.912   4.711  1.00  0.00    -0.479 OA
ATOM     14  H   UNL     1     -29.431  13.899   4.586  1.00  0.00    +0.297 HD
ENDBRANCH   4  13
TORSDOF 4
ENDMDL
MODEL 8
REMARK VINA RESULT:    -5.610     13.723     14.759
REMARK INTER + INTRA:          -6.687
REMARK INTER:                  -6.420
REMARK INTRA:                  -0.267
REMARK UNBOUND:                -0.257
REMARK SMILES O=C(O)c1cnc(O)nc1O
REMARK SMILES IDX 4 1 10 2 9 3 7 4 6 5 5 6 2 7 1 8 3 9 11 11 8 13
REMARK H PARENT 3 10 11 12 8 14
ROOT
ATOM      1  C   UNL     1     -26.230   8.515   6.432  1.00  0.00    +0.140 A 
ATOM      2  C   UNL     1     -25.154   7.794   6.902  1.00  0.00    +0.232 A 
ATOM      3  N   UNL     1     -25.220   6.803   7.812  1.00  0.00    -0.159 NA
ATOM      4  C   UNL     1     -26.454   6.547   8.252  1.00  0.00    +0.317 A 
ATOM      5  N   UNL     1     -27.584   7.156   7.891  1.00  0.00    -0.203 NA
ATOM      6  C   UNL     1     -27.442   8.141   6.975  1.00  0.00    +0.138 A 
ENDROOT
BRANCH   1   7
ATOM      7  C   UNL     1     -26.109   9.592   5.435  1.00  0.00    +0.342 C 
ATOM      8  O   UNL     1     -26.653   9.673   4.352  1.00  0.00    -0.246 OA
BRANCH   7   9
ATOM      9  O   UNL     1     -25.275  10.565   5.849  1.00  0.00    -0.477 OA
ATOM     10  H   UNL     1     -25.369  10.553   6.826  1.00  0.00    +0.297 HD
ENDBRANCH   7   9
ENDBRANCH   1   7
BRANCH   2  11
ATOM     11  O   UNL     1     -23.883   8.019   6.484  1.00  0.00    -0.493 OA
ATOM     12  H   UNL     1     -23.975   7.977   5.517  1.00  0.00    +0.295 HD
ENDBRANCH   2  11
BRANCH   4  13
ATOM     13  O   UNL     1     -26.544   5.552   9.169  1.00  0.00    -0.479 OA
ATOM     14  H   UNL     1     -26.688   4.794   8.580  1.00  0.00    +0.297 HD
ENDBRANCH   4  13
TORSDOF 4
ENDMDL
MODEL 9
REMARK VINA RESULT:    -5.518     13.244     14.594
REMARK INTER + INTRA:          -6.582
REMARK INTER:                  -6.316
REMARK INTRA:                  -0.266
REMARK UNBOUND:                -0.257
REMARK SMILES O=C(O)c1cnc(O)nc1O
REMARK SMILES IDX 4 1 10 2 9 3 7 4 6 5 5 6 2 7 1 8 3 9 11 11 8 13
REMARK H PARENT 3 10 11 12 8 14
ROOT
ATOM      1  C   UNL     1     -24.317   1.977  10.557  1.00  0.00    +0.140 A 
ATOM      2  C   UNL     1     -25.245   1.924   9.538  1.00  0.00    +0.232 A 
ATOM      3  N   UNL     1     -26.066   2.931   9.182  1.00  0.00    -0.159 NA
ATOM      4  C   UNL     1     -25.920   4.039   9.911  1.00  0.00    +0.317 A 
ATOM      5  N   UNL     1     -25.071   4.238  10.920  1.00  0.00    -0.203 NA
ATOM      6  C   UNL     1     -24.278   3.185  11.223  1.00  0.00    +0.138 A 
ENDROOT
BRANCH   1   7
ATOM      7  C   UNL     1     -23.439   0.850  10.911  1.00  0.00    +0.342 C 
ATOM      8  O   UNL     1     -22.224   0.822  10.920  1.00  0.00    -0.246 OA
BRANCH   7   9
ATOM      9  O   UNL     1     -24.144  -0.246  11.252  1.00  0.00    -0.477 OA
ATOM     10  H   UNL     1     -24.302  -0.131  12.214  1.00  0.00    +0.297 HD
ENDBRANCH   7   9
ENDBRANCH   1   7
BRANCH   2  11
ATOM     11  O   UNL     1     -25.428   0.820   8.771  1.00  0.00    -0.493 OA
ATOM     12  H   UNL     1     -24.720   0.232   9.087  1.00  0.00    +0.295 HD
ENDBRANCH   2  11
BRANCH   4  13
ATOM     13  O   UNL     1     -26.738   5.065   9.568  1.00  0.00    -0.479 OA
ATOM     14  H   UNL     1     -26.575   5.097   8.612  1.00  0.00    +0.297 HD
ENDBRANCH   4  13
TORSDOF 4
ENDMDL
