MODEL 1
REMARK VINA RESULT:    -6.697      0.000      0.000
REMARK INTER + INTRA:          -7.554
REMARK INTER:                  -7.480
REMARK INTRA:                  -0.075
REMARK UNBOUND:                -0.075
REMARK SMILES Nc1cc(Cl)c(S(=O)(=O)O)cc1Cl
REMARK SMILES IDX 2 1 3 2 4 3 6 4 11 5 12 6 13 7 5 8 1 9 7 12 8 13 9 14 10 15
REMARK H PARENT 1 10 1 11 10 16
ROOT
ATOM      1  C   UNL     1     -30.706  10.933   6.801  1.00  0.00    +0.052 A 
ATOM      2  C   UNL     1     -29.794  11.869   6.298  1.00  0.00    +0.049 A 
ATOM      3  C   UNL     1     -28.505  11.485   5.901  1.00  0.00    +0.064 A 
ATOM      4  C   UNL     1     -28.110  10.156   6.046  1.00  0.00    +0.114 A 
ATOM      5  C   UNL     1     -28.989   9.212   6.591  1.00  0.00    +0.047 A 
ATOM      6  C   UNL     1     -30.269   9.608   6.981  1.00  0.00    +0.065 A 
ATOM      7 Cl   UNL     1     -31.321   8.419   7.666  1.00  0.00    -0.082 Cl
ATOM      8 Cl   UNL     1     -27.483  12.719   5.258  1.00  0.00    -0.083 Cl
ENDROOT
BRANCH   1   9
ATOM      9  N   UNL     1     -31.938  11.383   7.304  1.00  0.00    -0.397 N 
ATOM     10  H   UNL     1     -32.719  10.778   7.054  1.00  0.00    +0.156 HD
ATOM     11  H   UNL     1     -32.135  12.365   7.143  1.00  0.00    +0.156 HD
ENDBRANCH   1   9
BRANCH   4  12
ATOM     12  S   UNL     1     -26.496   9.647   5.555  1.00  0.00    +0.296 S 
ATOM     13  O   UNL     1     -26.446   9.646   4.111  1.00  0.00    -0.194 OA
ATOM     14  O   UNL     1     -25.529  10.353   6.366  1.00  0.00    -0.194 OA
BRANCH  12  15
ATOM     15  O   UNL     1     -26.367   8.104   6.013  1.00  0.00    -0.282 OA
ATOM     16  H   UNL     1     -25.540   7.749   5.622  1.00  0.00    +0.234 HD
ENDBRANCH  12  15
ENDBRANCH   4  12
TORSDOF 3
ENDMDL
MODEL 2
REMARK VINA RESULT:    -6.441      3.943      4.337
REMARK INTER + INTRA:          -7.268
REMARK INTER:                  -7.387
REMARK INTRA:                   0.118
REMARK UNBOUND:                -0.075
REMARK SMILES Nc1cc(Cl)c(S(=O)(=O)O)cc1Cl
REMARK SMILES IDX 2 1 3 2 4 3 6 4 11 5 12 6 13 7 5 8 1 9 7 12 8 13 9 14 10 15
REMARK H PARENT 1 10 1 11 10 16
ROOT
ATOM      1  C   UNL     1     -26.624   9.434   6.200  1.00  0.00    +0.052 A 
ATOM      2  C   UNL     1     -27.064  10.663   5.694  1.00  0.00    +0.049 A 
ATOM      3  C   UNL     1     -28.327  11.174   6.026  1.00  0.00    +0.064 A 
ATOM      4  C   UNL     1     -29.176  10.427   6.841  1.00  0.00    +0.114 A 
ATOM      5  C   UNL     1     -28.776   9.173   7.319  1.00  0.00    +0.047 A 
ATOM      6  C   UNL     1     -27.516   8.678   6.981  1.00  0.00    +0.065 A 
ATOM      7 Cl   UNL     1     -27.063   7.118   7.575  1.00  0.00    -0.082 Cl
ATOM      8 Cl   UNL     1     -28.743  12.719   5.376  1.00  0.00    -0.083 Cl
ENDROOT
BRANCH   1   9
ATOM      9  N   UNL     1     -25.408   8.903   5.740  1.00  0.00    -0.397 N 
ATOM     10  H   UNL     1     -25.434   7.892   5.609  1.00  0.00    +0.156 HD
ATOM     11  H   UNL     1     -24.584   9.212   6.247  1.00  0.00    +0.156 HD
ENDBRANCH   1   9
BRANCH   4  12
ATOM     12  S   UNL     1     -30.768  11.045   7.273  1.00  0.00    +0.296 S 
ATOM     13  O   UNL     1     -31.520   9.967   7.873  1.00  0.00    -0.194 OA
ATOM     14  O   UNL     1     -30.600  12.329   7.916  1.00  0.00    -0.194 OA
BRANCH  12  15
ATOM     15  O   UNL     1     -31.500  11.381   5.873  1.00  0.00    -0.282 OA
ATOM     16  H   UNL     1     -32.450  11.534   6.066  1.00  0.00    +0.234 HD
ENDBRANCH  12  15
ENDBRANCH   4  12
TORSDOF 3
ENDMDL
MODEL 3
REMARK VINA RESULT:    -6.294      1.918      2.996
REMARK INTER + INTRA:          -7.104
REMARK INTER:                  -7.030
REMARK INTRA:                  -0.075
REMARK UNBOUND:                -0.075
REMARK SMILES Nc1cc(Cl)c(S(=O)(=O)O)cc1Cl
REMARK SMILES IDX 2 1 3 2 4 3 6 4 11 5 12 6 13 7 5 8 1 9 7 12 8 13 9 14 10 15
REMARK H PARENT 1 10 1 11 10 16
ROOT
ATOM      1  C   UNL     1     -30.458   9.393   7.265  1.00  0.00    +0.052 A 
ATOM      2  C   UNL     1     -29.612   8.306   7.518  1.00  0.00    +0.049 A 
ATOM      3  C   UNL     1     -28.245   8.364   7.210  1.00  0.00    +0.064 A 
ATOM      4  C   UNL     1     -27.726   9.508   6.605  1.00  0.00    +0.114 A 
ATOM      5  C   UNL     1     -28.563  10.588   6.299  1.00  0.00    +0.047 A 
ATOM      6  C   UNL     1     -29.921  10.516   6.612  1.00  0.00    +0.065 A 
ATOM      7 Cl   UNL     1     -30.928  11.862   6.204  1.00  0.00    -0.082 Cl
ATOM      8 Cl   UNL     1     -27.293   6.979   7.606  1.00  0.00    -0.083 Cl
ENDROOT
BRANCH   1   9
ATOM      9  N   UNL     1     -31.839   9.244   7.471  1.00  0.00    -0.397 N 
ATOM     10  H   UNL     1     -32.261  10.036   7.955  1.00  0.00    +0.156 HD
ATOM     11  H   UNL     1     -32.123   8.350   7.861  1.00  0.00    +0.156 HD
ENDBRANCH   1   9
BRANCH   4  12
ATOM     12  S   UNL     1     -26.013   9.606   6.207  1.00  0.00    +0.296 S 
ATOM     13  O   UNL     1     -25.261   9.527   7.439  1.00  0.00    -0.194 OA
ATOM     14  O   UNL     1     -25.755   8.736   5.081  1.00  0.00    -0.194 OA
BRANCH  12  15
ATOM     15  O   UNL     1     -25.783  11.098   5.633  1.00  0.00    -0.282 OA
ATOM     16  H   UNL     1     -25.368  11.012   4.748  1.00  0.00    +0.234 HD
ENDBRANCH  12  15
ENDBRANCH   4  12
TORSDOF 3
ENDMDL
MODEL 4
REMARK VINA RESULT:    -6.059      4.167      4.596
REMARK INTER + INTRA:          -6.842
REMARK INTER:                  -6.836
REMARK INTRA:                  -0.006
REMARK UNBOUND:                -0.075
REMARK SMILES Nc1cc(Cl)c(S(=O)(=O)O)cc1Cl
REMARK SMILES IDX 2 1 3 2 4 3 6 4 11 5 12 6 13 7 5 8 1 9 7 12 8 13 9 14 10 15
REMARK H PARENT 1 10 1 11 10 16
ROOT
ATOM      1  C   UNL     1     -27.050   9.368   6.914  1.00  0.00    +0.052 A 
ATOM      2  C   UNL     1     -27.856  10.457   6.562  1.00  0.00    +0.049 A 
ATOM      3  C   UNL     1     -29.251  10.397   6.686  1.00  0.00    +0.064 A 
ATOM      4  C   UNL     1     -29.850   9.218   7.131  1.00  0.00    +0.114 A 
ATOM      5  C   UNL     1     -29.066   8.101   7.443  1.00  0.00    +0.047 A 
ATOM      6  C   UNL     1     -27.679   8.176   7.314  1.00  0.00    +0.065 A 
ATOM      7 Cl   UNL     1     -26.744   6.770   7.692  1.00  0.00    -0.082 Cl
ATOM      8 Cl   UNL     1     -30.138  11.816   6.261  1.00  0.00    -0.083 Cl
ENDROOT
BRANCH   1   9
ATOM      9  N   UNL     1     -25.671   9.427   6.652  1.00  0.00    -0.397 N 
ATOM     10  H   UNL     1     -25.453   9.492   5.659  1.00  0.00    +0.156 HD
ATOM     11  H   UNL     1     -25.111   8.729   7.132  1.00  0.00    +0.156 HD
ENDBRANCH   1   9
BRANCH   4  12
ATOM     12  S   UNL     1     -31.601   9.116   7.296  1.00  0.00    +0.296 S 
ATOM     13  O   UNL     1     -32.034  10.192   8.158  1.00  0.00    -0.194 OA
ATOM     14  O   UNL     1     -32.171   8.891   5.986  1.00  0.00    -0.194 OA
BRANCH  12  15
ATOM     15  O   UNL     1     -31.883   7.748   8.106  1.00  0.00    -0.282 OA
ATOM     16  H   UNL     1     -32.856   7.653   8.194  1.00  0.00    +0.234 HD
ENDBRANCH  12  15
ENDBRANCH   4  12
TORSDOF 3
ENDMDL
MODEL 5
REMARK VINA RESULT:    -5.821      9.743     10.462
REMARK INTER + INTRA:          -6.576
REMARK INTER:                  -6.486
REMARK INTRA:                  -0.090
REMARK UNBOUND:                -0.075
REMARK SMILES Nc1cc(Cl)c(S(=O)(=O)O)cc1Cl
REMARK SMILES IDX 2 1 3 2 4 3 6 4 11 5 12 6 13 7 5 8 1 9 7 12 8 13 9 14 10 15
REMARK H PARENT 1 10 1 11 10 16
ROOT
ATOM      1  C   UNL     1     -28.799   1.005  12.779  1.00  0.00    +0.052 A 
ATOM      2  C   UNL     1     -28.009   2.146  12.966  1.00  0.00    +0.049 A 
ATOM      3  C   UNL     1     -26.967   2.459  12.082  1.00  0.00    +0.064 A 
ATOM      4  C   UNL     1     -26.687   1.600  11.021  1.00  0.00    +0.114 A 
ATOM      5  C   UNL     1     -27.433   0.429  10.842  1.00  0.00    +0.047 A 
ATOM      6  C   UNL     1     -28.467   0.130  11.730  1.00  0.00    +0.065 A 
ATOM      7 Cl   UNL     1     -29.356  -1.334  11.489  1.00  0.00    -0.082 Cl
ATOM      8 Cl   UNL     1     -26.089   3.913  12.390  1.00  0.00    -0.083 Cl
ENDROOT
BRANCH   1   9
ATOM      9  N   UNL     1     -29.746   0.663  13.759  1.00  0.00    -0.397 N 
ATOM     10  H   UNL     1     -30.563   1.273  13.759  1.00  0.00    +0.156 HD
ATOM     11  H   UNL     1     -29.368   0.513  14.689  1.00  0.00    +0.156 HD
ENDBRANCH   1   9
BRANCH   4  12
ATOM     12  S   UNL     1     -25.383   1.970   9.895  1.00  0.00    +0.296 S 
ATOM     13  O   UNL     1     -25.767   3.136   9.131  1.00  0.00    -0.194 OA
ATOM     14  O   UNL     1     -24.127   1.886  10.608  1.00  0.00    -0.194 OA
BRANCH  12  15
ATOM     15  O   UNL     1     -25.345   0.739   8.851  1.00  0.00    -0.282 OA
ATOM     16  H   UNL     1     -26.089   0.861   8.224  1.00  0.00    +0.234 HD
ENDBRANCH  12  15
ENDBRANCH   4  12
TORSDOF 3
ENDMDL
MODEL 6
REMARK VINA RESULT:    -5.641      9.123     10.040
REMARK INTER + INTRA:          -6.375
REMARK INTER:                  -6.321
REMARK INTRA:                  -0.054
REMARK UNBOUND:                -0.075
REMARK SMILES Nc1cc(Cl)c(S(=O)(=O)O)cc1Cl
REMARK SMILES IDX 2 1 3 2 4 3 6 4 11 5 12 6 13 7 5 8 1 9 7 12 8 13 9 14 10 15
REMARK H PARENT 1 10 1 11 10 16
ROOT
ATOM      1  C   UNL     1     -37.599   3.656  10.110  1.00  0.00    +0.052 A 
ATOM      2  C   UNL     1     -36.430   2.970   9.761  1.00  0.00    +0.049 A 
ATOM      3  C   UNL     1     -35.392   3.610   9.071  1.00  0.00    +0.064 A 
ATOM      4  C   UNL     1     -35.542   4.943   8.689  1.00  0.00    +0.114 A 
ATOM      5  C   UNL     1     -36.722   5.635   8.985  1.00  0.00    +0.047 A 
ATOM      6  C   UNL     1     -37.747   4.984   9.673  1.00  0.00    +0.065 A 
ATOM      7 Cl   UNL     1     -39.198   5.865  10.006  1.00  0.00    -0.082 Cl
ATOM      8 Cl   UNL     1     -33.981   2.674   8.732  1.00  0.00    -0.083 Cl
ENDROOT
BRANCH   1   9
ATOM      9  N   UNL     1     -38.663   2.942  10.687  1.00  0.00    -0.397 N 
ATOM     10  H   UNL     1     -39.495   2.916  10.099  1.00  0.00    +0.156 HD
ATOM     11  H   UNL     1     -38.871   3.184  11.651  1.00  0.00    +0.156 HD
ENDBRANCH   1   9
BRANCH   4  12
ATOM     12  S   UNL     1     -34.253   5.772   7.819  1.00  0.00    +0.296 S 
ATOM     13  O   UNL     1     -33.070   5.757   8.650  1.00  0.00    -0.194 OA
ATOM     14  O   UNL     1     -34.249   5.301   6.452  1.00  0.00    -0.194 OA
BRANCH  12  15
ATOM     15  O   UNL     1     -34.716   7.315   7.720  1.00  0.00    -0.282 OA
ATOM     16  H   UNL     1     -35.312   7.395   6.945  1.00  0.00    +0.234 HD
ENDBRANCH  12  15
ENDBRANCH   4  12
TORSDOF 3
ENDMDL
MODEL 7
REMARK VINA RESULT:    -5.353     10.635     11.193
REMARK INTER + INTRA:          -6.054
REMARK INTER:                  -6.172
REMARK INTRA:                   0.118
REMARK UNBOUND:                -0.075
REMARK SMILES Nc1cc(Cl)c(S(=O)(=O)O)cc1Cl
REMARK SMILES IDX 2 1 3 2 4 3 6 4 11 5 12 6 13 7 5 8 1 9 7 12 8 13 9 14 10 15
REMARK H PARENT 1 10 1 11 10 16
ROOT
ATOM      1  C   UNL     1     -25.972   3.002  11.863  1.00  0.00    +0.052 A 
ATOM      2  C   UNL     1     -24.838   2.778  11.072  1.00  0.00    +0.049 A 
ATOM      3  C   UNL     1     -24.580   1.517  10.515  1.00  0.00    +0.064 A 
ATOM      4  C   UNL     1     -25.446   0.458  10.784  1.00  0.00    +0.114 A 
ATOM      5  C   UNL     1     -26.560   0.648  11.611  1.00  0.00    +0.047 A 
ATOM      6  C   UNL     1     -26.804   1.908  12.158  1.00  0.00    +0.065 A 
ATOM      7 Cl   UNL     1     -28.180   2.101  13.189  1.00  0.00    -0.082 Cl
ATOM      8 Cl   UNL     1     -23.174   1.371   9.524  1.00  0.00    -0.083 Cl
ENDROOT
BRANCH   1   9
ATOM      9  N   UNL     1     -26.122   4.243  12.503  1.00  0.00    -0.397 N 
ATOM     10  H   UNL     1     -26.943   4.288  13.105  1.00  0.00    +0.156 HD
ATOM     11  H   UNL     1     -26.035   5.054  11.898  1.00  0.00    +0.156 HD
ENDBRANCH   1   9
BRANCH   4  12
ATOM     12  S   UNL     1     -25.145  -1.136  10.097  1.00  0.00    +0.296 S 
ATOM     13  O   UNL     1     -25.789  -1.196   8.804  1.00  0.00    -0.194 OA
ATOM     14  O   UNL     1     -23.749  -1.458  10.287  1.00  0.00    -0.194 OA
BRANCH  12  15
ATOM     15  O   UNL     1     -25.938  -2.176  11.045  1.00  0.00    -0.282 OA
ATOM     16  H   UNL     1     -26.243  -1.681  11.835  1.00  0.00    +0.234 HD
ENDBRANCH  12  15
ENDBRANCH   4  12
TORSDOF 3
ENDMDL
MODEL 8
REMARK VINA RESULT:    -5.262      9.516     10.598
REMARK INTER + INTRA:          -5.952
REMARK INTER:                  -5.930
REMARK INTRA:                  -0.022
REMARK UNBOUND:                -0.075
REMARK SMILES Nc1cc(Cl)c(S(=O)(=O)O)cc1Cl
REMARK SMILES IDX 2 1 3 2 4 3 6 4 11 5 12 6 13 7 5 8 1 9 7 12 8 13 9 14 10 15
REMARK H PARENT 1 10 1 11 10 16
ROOT
ATOM      1  C   UNL     1     -38.336   4.103   9.626  1.00  0.00    +0.052 A 
ATOM      2  C   UNL     1     -37.438   4.937   8.950  1.00  0.00    +0.049 A 
ATOM      3  C   UNL     1     -36.052   4.759   9.069  1.00  0.00    +0.064 A 
ATOM      4  C   UNL     1     -35.559   3.759   9.906  1.00  0.00    +0.114 A 
ATOM      5  C   UNL     1     -36.438   2.944  10.629  1.00  0.00    +0.047 A 
ATOM      6  C   UNL     1     -37.815   3.133  10.500  1.00  0.00    +0.065 A 
ATOM      7 Cl   UNL     1     -38.870   2.119  11.421  1.00  0.00    -0.082 Cl
ATOM      8 Cl   UNL     1     -35.044   5.822   8.155  1.00  0.00    -0.083 Cl
ENDROOT
BRANCH   1   9
ATOM      9  N   UNL     1     -39.709   4.398   9.579  1.00  0.00    -0.397 N 
ATOM     10  H   UNL     1     -39.929   5.337   9.907  1.00  0.00    +0.156 HD
ATOM     11  H   UNL     1     -40.315   3.690   9.980  1.00  0.00    +0.156 HD
ENDBRANCH   1   9
BRANCH   4  12
ATOM     12  S   UNL     1     -33.822   3.514  10.074  1.00  0.00    +0.296 S 
ATOM     13  O   UNL     1     -33.356   2.797   8.909  1.00  0.00    -0.194 OA
ATOM     14  O   UNL     1     -33.226   4.756  10.512  1.00  0.00    -0.194 OA
BRANCH  12  15
ATOM     15  O   UNL     1     -33.643   2.509  11.325  1.00  0.00    -0.282 OA
ATOM     16  H   UNL     1     -32.747   2.113  11.258  1.00  0.00    +0.234 HD
ENDBRANCH  12  15
ENDBRANCH   4  12
TORSDOF 3
ENDMDL
MODEL 9
REMARK VINA RESULT:    -5.086      9.228     10.134
REMARK INTER + INTRA:          -5.755
REMARK INTER:                  -5.712
REMARK INTRA:                  -0.043
REMARK UNBOUND:                -0.075
REMARK SMILES Nc1cc(Cl)c(S(=O)(=O)O)cc1Cl
REMARK SMILES IDX 2 1 3 2 4 3 6 4 11 5 12 6 13 7 5 8 1 9 7 12 8 13 9 14 10 15
REMARK H PARENT 1 10 1 11 10 16
ROOT
ATOM      1  C   UNL     1     -28.106   1.582  10.288  1.00  0.00    +0.052 A 
ATOM      2  C   UNL     1     -27.361   2.729   9.991  1.00  0.00    +0.049 A 
ATOM      3  C   UNL     1     -25.960   2.714  10.029  1.00  0.00    +0.064 A 
ATOM      4  C   UNL     1     -25.296   1.548  10.408  1.00  0.00    +0.114 A 
ATOM      5  C   UNL     1     -26.022   0.402  10.755  1.00  0.00    +0.047 A 
ATOM      6  C   UNL     1     -27.417   0.432  10.712  1.00  0.00    +0.065 A 
ATOM      7 Cl   UNL     1     -28.281  -0.996  11.165  1.00  0.00    -0.082 Cl
ATOM      8 Cl   UNL     1     -25.148   4.177   9.603  1.00  0.00    -0.083 Cl
ENDROOT
BRANCH   1   9
ATOM      9  N   UNL     1     -29.506   1.677  10.361  1.00  0.00    -0.397 N 
ATOM     10  H   UNL     1     -29.955   1.694   9.446  1.00  0.00    +0.156 HD
ATOM     11  H   UNL     1     -29.856   2.397  10.984  1.00  0.00    +0.156 HD
ENDBRANCH   1   9
BRANCH   4  12
ATOM     12  S   UNL     1     -23.536   1.502  10.465  1.00  0.00    +0.296 S 
ATOM     13  O   UNL     1     -23.045   1.406   9.109  1.00  0.00    -0.194 OA
ATOM     14  O   UNL     1     -23.082   2.521  11.386  1.00  0.00    -0.194 OA
BRANCH  12  15
ATOM     15  O   UNL     1     -23.159   0.105  11.182  1.00  0.00    -0.282 OA
ATOM     16  H   UNL     1     -22.414   0.281  11.796  1.00  0.00    +0.234 HD
ENDBRANCH  12  15
ENDBRANCH   4  12
TORSDOF 3
ENDMDL
