MODEL 1
REMARK VINA RESULT:    -4.536      0.000      0.000
REMARK INTER + INTRA:          -6.609
REMARK INTER:                  -6.790
REMARK INTRA:                   0.181
REMARK UNBOUND:                 0.181
REMARK SMILES C[C@@H]1OCO[C@@H](CO)[C@@H](O)[C@H]1O
REMARK SMILES IDX 4 1 3 2 2 3 1 4 11 5 12 7 5 9 6 10 7 11 8 12 9 14 10 16
REMARK H PARENT 12 8 8 13 10 17
REMARK Flexibility Score:    8.900
ROOT
ATOM      1  C   UNL     1     -29.291   9.955   6.947  1.00  0.00    +0.324 C 
ENDROOT
BRANCH   1   2
ATOM      2  O   UNL     1     -28.791  11.278   6.803  1.00  0.00    -0.350 OA
BRANCH   2   3
ATOM      3  C   UNL     1     -28.163  11.562   5.551  1.00  0.00    +0.149 C 
ATOM      4  C   UNL     1     -28.432  13.038   5.268  1.00  0.00    +0.041 C 
BRANCH   3   5
ATOM      5  C   UNL     1     -26.652  11.260   5.492  1.00  0.00    +0.174 CG0
ATOM      6  G   UNL     1     -26.258   9.781   5.705  1.00  0.00    +0.000 G0
BRANCH   5   7
ATOM      7  O   UNL     1     -26.118  11.693   4.215  1.00  0.00    -0.388 OA
ATOM      8  H   UNL     1     -26.390  11.034   3.551  1.00  0.00    +0.211 HD
ENDBRANCH   5   7
ENDBRANCH   3   5
ENDBRANCH   2   3
ENDBRANCH   1   2
BRANCH   1   9
ATOM      9  O   UNL     1     -28.466   8.926   6.399  1.00  0.00    -0.347 OA
BRANCH   9  10
ATOM     10  C   UNL     1     -27.090   9.030   6.780  1.00  0.00    +0.178 C 
BRANCH  10  11
ATOM     11  C   UNL     1     -26.554   7.616   7.043  1.00  0.00    +0.191 C 
BRANCH  11  12
ATOM     12  O   UNL     1     -25.265   7.668   7.649  1.00  0.00    -0.394 OA
ATOM     13  H   UNL     1     -24.784   6.883   7.336  1.00  0.00    +0.210 HD
ENDBRANCH  11  12
ENDBRANCH  10  11
BRANCH  10  14
ATOM     14  C   UNL     1     -26.269   9.779   5.700  1.00  0.00    +0.177 CG0
ATOM     15  G   UNL     1     -26.644  11.265   5.504  1.00  0.00    +0.000 G0
BRANCH  14  16
ATOM     16  O   UNL     1     -26.434   9.157   4.408  1.00  0.00    -0.388 OA
ATOM     17  H   UNL     1     -25.884   8.347   4.467  1.00  0.00    +0.211 HD
ENDBRANCH  14  16
ENDBRANCH  10  14
ENDBRANCH   9  10
ENDBRANCH   1   9
TORSDOF 4
ENDMDL
MODEL 2
REMARK VINA RESULT:    -4.285      8.691     10.818
REMARK INTER + INTRA:          -6.234
REMARK INTER:                  -6.317
REMARK INTRA:                   0.083
REMARK UNBOUND:                 0.181
REMARK SMILES C[C@@H]1OCO[C@@H](CO)[C@@H](O)[C@H]1O
REMARK SMILES IDX 4 1 3 2 2 3 1 4 11 5 12 7 5 9 6 10 7 11 8 12 9 14 10 16
REMARK H PARENT 12 8 8 13 10 17
REMARK Flexibility Score:    8.900
ROOT
ATOM      1  C   UNL     1     -23.145   2.439  11.034  1.00  0.00    +0.324 C 
ENDROOT
BRANCH   1   2
ATOM      2  O   UNL     1     -23.087   1.032  11.224  1.00  0.00    -0.350 OA
BRANCH   2   3
ATOM      3  C   UNL     1     -23.550   0.245  10.125  1.00  0.00    +0.149 C 
ATOM      4  C   UNL     1     -22.712  -1.031  10.135  1.00  0.00    +0.041 C 
BRANCH   3   5
ATOM      5  C   UNL     1     -25.055  -0.090  10.147  1.00  0.00    +0.174 CG0
ATOM      6  G   UNL     1     -26.008   1.126  10.197  1.00  0.00    +0.000 G0
BRANCH   5   7
ATOM      7  O   UNL     1     -25.394  -0.885   8.982  1.00  0.00    -0.388 OA
ATOM      8  H   UNL     1     -26.129  -0.434   8.530  1.00  0.00    +0.211 HD
ENDBRANCH   5   7
ENDBRANCH   3   5
ENDBRANCH   2   3
ENDBRANCH   1   2
BRANCH   1   9
ATOM      9  O   UNL     1     -24.381   2.937  10.522  1.00  0.00    -0.347 OA
BRANCH   9  10
ATOM     10  C   UNL     1     -25.533   2.298  11.084  1.00  0.00    +0.178 C 
BRANCH  10  11
ATOM     11  C   UNL     1     -26.618   3.362  11.298  1.00  0.00    +0.191 C 
BRANCH  11  12
ATOM     12  O   UNL     1     -26.402   4.484  10.447  1.00  0.00    -0.394 OA
ATOM     13  H   UNL     1     -27.282   4.808  10.191  1.00  0.00    +0.210 HD
ENDBRANCH  11  12
ENDBRANCH  10  11
BRANCH  10  14
ATOM     14  C   UNL     1     -26.019   1.134  10.184  1.00  0.00    +0.177 CG0
ATOM     15  G   UNL     1     -25.079  -0.091  10.131  1.00  0.00    +0.000 G0
BRANCH  14  16
ATOM     16  O   UNL     1     -26.172   1.574   8.817  1.00  0.00    -0.388 OA
ATOM     17  H   UNL     1     -25.252   1.613   8.480  1.00  0.00    +0.211 HD
ENDBRANCH  14  16
ENDBRANCH  10  14
ENDBRANCH   9  10
ENDBRANCH   1   9
TORSDOF 4
ENDMDL
MODEL 3
REMARK VINA RESULT:    -4.254      9.450     11.192
REMARK INTER + INTRA:          -6.188
REMARK INTER:                  -6.170
REMARK INTRA:                  -0.017
REMARK UNBOUND:                 0.181
REMARK SMILES C[C@@H]1OCO[C@@H](CO)[C@@H](O)[C@H]1O
REMARK SMILES IDX 4 1 3 2 2 3 1 4 11 5 12 7 5 9 6 10 7 11 8 12 9 14 10 16
REMARK H PARENT 12 8 8 13 10 17
REMARK Flexibility Score:    8.900
ROOT
ATOM      1  C   UNL     1     -35.249   3.252  10.507  1.00  0.00    +0.324 C 
ENDROOT
BRANCH   1   2
ATOM      2  O   UNL     1     -34.431   3.639   9.411  1.00  0.00    -0.350 OA
BRANCH   2   3
ATOM      3  C   UNL     1     -34.327   5.047   9.190  1.00  0.00    +0.149 C 
ATOM      4  C   UNL     1     -33.010   5.264   8.452  1.00  0.00    +0.041 C 
BRANCH   3   5
ATOM      5  C   UNL     1     -35.501   5.676   8.413  1.00  0.00    +0.174 CG0
ATOM      6  G   UNL     1     -36.823   5.817   9.199  1.00  0.00    +0.000 G0
BRANCH   5   7
ATOM      7  O   UNL     1     -35.117   6.989   7.931  1.00  0.00    -0.388 OA
ATOM      8  H   UNL     1     -34.629   6.859   7.098  1.00  0.00    +0.211 HD
ENDBRANCH   5   7
ENDBRANCH   3   5
ENDBRANCH   2   3
ENDBRANCH   1   2
BRANCH   1   9
ATOM      9  O   UNL     1     -36.136   4.259  10.994  1.00  0.00    -0.347 OA
BRANCH   9  10
ATOM     10  C   UNL     1     -37.189   4.586  10.080  1.00  0.00    +0.178 C 
BRANCH  10  11
ATOM     11  C   UNL     1     -38.476   4.806  10.887  1.00  0.00    +0.191 C 
BRANCH  11  12
ATOM     12  O   UNL     1     -39.261   5.847  10.314  1.00  0.00    -0.394 OA
ATOM     13  H   UNL     1     -39.201   6.603  10.921  1.00  0.00    +0.210 HD
ENDBRANCH  11  12
ENDBRANCH  10  11
BRANCH  10  14
ATOM     14  C   UNL     1     -36.816   5.820   9.220  1.00  0.00    +0.177 CG0
ATOM     15  G   UNL     1     -35.509   5.683   8.408  1.00  0.00    +0.000 G0
BRANCH  14  16
ATOM     16  O   UNL     1     -36.645   6.989  10.049  1.00  0.00    -0.388 OA
ATOM     17  H   UNL     1     -36.474   7.709   9.405  1.00  0.00    +0.211 HD
ENDBRANCH  14  16
ENDBRANCH  10  14
ENDBRANCH   9  10
ENDBRANCH   1   9
TORSDOF 4
ENDMDL
MODEL 4
REMARK VINA RESULT:    -4.202      8.922     10.001
REMARK INTER + INTRA:          -6.109
REMARK INTER:                  -6.073
REMARK INTRA:                  -0.036
REMARK UNBOUND:                 0.181
REMARK SMILES C[C@@H]1OCO[C@@H](CO)[C@@H](O)[C@H]1O
REMARK SMILES IDX 4 1 3 2 2 3 1 4 11 5 12 7 5 9 6 10 7 11 8 12 9 14 10 16
REMARK H PARENT 12 8 8 13 10 17
REMARK Flexibility Score:    8.900
ROOT
ATOM      1  C   UNL     1     -25.915  -0.105  10.671  1.00  0.00    +0.324 C 
ENDROOT
BRANCH   1   2
ATOM      2  O   UNL     1     -26.297   0.693  11.784  1.00  0.00    -0.350 OA
BRANCH   2   3
ATOM      3  C   UNL     1     -26.703   2.026  11.471  1.00  0.00    +0.149 C 
ATOM      4  C   UNL     1     -27.777   2.393  12.492  1.00  0.00    +0.041 C 
BRANCH   3   5
ATOM      5  C   UNL     1     -25.571   3.073  11.469  1.00  0.00    +0.174 CG0
ATOM      6  G   UNL     1     -24.322   2.704  10.637  1.00  0.00    +0.000 G0
BRANCH   5   7
ATOM      7  O   UNL     1     -26.080   4.341  10.985  1.00  0.00    -0.388 OA
ATOM      8  H   UNL     1     -25.311   4.908  10.796  1.00  0.00    +0.211 HD
ENDBRANCH   5   7
ENDBRANCH   3   5
ENDBRANCH   2   3
ENDBRANCH   1   2
BRANCH   1   9
ATOM      9  O   UNL     1     -24.795   0.376   9.929  1.00  0.00    -0.347 OA
BRANCH   9  10
ATOM     10  C   UNL     1     -23.907   1.196  10.697  1.00  0.00    +0.178 C 
BRANCH  10  11
ATOM     11  C   UNL     1     -22.478   0.972  10.186  1.00  0.00    +0.191 C 
BRANCH  11  12
ATOM     12  O   UNL     1     -22.408   1.166   8.776  1.00  0.00    -0.394 OA
ATOM     13  H   UNL     1     -22.643   2.096   8.615  1.00  0.00    +0.210 HD
ENDBRANCH  11  12
ENDBRANCH  10  11
BRANCH  10  14
ATOM     14  C   UNL     1     -24.328   2.686  10.630  1.00  0.00    +0.177 CG0
ATOM     15  G   UNL     1     -25.573   3.055  11.468  1.00  0.00    +0.000 G0
BRANCH  14  16
ATOM     16  O   UNL     1     -24.638   3.070   9.273  1.00  0.00    -0.388 OA
ATOM     17  H   UNL     1     -25.498   3.535   9.353  1.00  0.00    +0.211 HD
ENDBRANCH  14  16
ENDBRANCH  10  14
ENDBRANCH   9  10
ENDBRANCH   1   9
TORSDOF 4
ENDMDL
MODEL 5
REMARK VINA RESULT:    -4.000      9.519     11.379
REMARK INTER + INTRA:          -5.807
REMARK INTER:                  -5.788
REMARK INTRA:                  -0.018
REMARK UNBOUND:                 0.181
REMARK SMILES C[C@@H]1OCO[C@@H](CO)[C@@H](O)[C@H]1O
REMARK SMILES IDX 4 1 3 2 2 3 1 4 11 5 12 7 5 9 6 10 7 11 8 12 9 14 10 16
REMARK H PARENT 12 8 8 13 10 17
REMARK Flexibility Score:    8.900
ROOT
ATOM      1  C   UNL     1     -35.156   2.802   8.512  1.00  0.00    +0.324 C 
ENDROOT
BRANCH   1   2
ATOM      2  O   UNL     1     -36.414   2.449   9.072  1.00  0.00    -0.350 OA
BRANCH   2   3
ATOM      3  C   UNL     1     -37.106   3.507   9.739  1.00  0.00    +0.149 C 
ATOM      4  C   UNL     1     -37.956   2.843  10.819  1.00  0.00    +0.041 C 
BRANCH   3   5
ATOM      5  C   UNL     1     -36.203   4.599  10.348  1.00  0.00    +0.174 CG0
ATOM      6  G   UNL     1     -35.655   5.644   9.351  1.00  0.00    +0.000 G0
BRANCH   5   7
ATOM      7  O   UNL     1     -36.925   5.302  11.391  1.00  0.00    -0.388 OA
ATOM      8  H   UNL     1     -37.193   4.639  12.052  1.00  0.00    +0.211 HD
ENDBRANCH   5   7
ENDBRANCH   3   5
ENDBRANCH   2   3
ENDBRANCH   1   2
BRANCH   1   9
ATOM      9  O   UNL     1     -35.167   3.942   7.653  1.00  0.00    -0.347 OA
BRANCH   9  10
ATOM     10  C   UNL     1     -34.674   5.133   8.276  1.00  0.00    +0.178 C 
BRANCH  10  11
ATOM     11  C   UNL     1     -34.392   6.170   7.180  1.00  0.00    +0.191 C 
BRANCH  11  12
ATOM     12  O   UNL     1     -34.522   7.494   7.690  1.00  0.00    -0.394 OA
ATOM     13  H   UNL     1     -33.737   7.982   7.389  1.00  0.00    +0.210 HD
ENDBRANCH  11  12
ENDBRANCH  10  11
BRANCH  10  14
ATOM     14  C   UNL     1     -35.671   5.659   9.340  1.00  0.00    +0.177 CG0
ATOM     15  G   UNL     1     -36.198   4.594  10.328  1.00  0.00    +0.000 G0
BRANCH  14  16
ATOM     16  O   UNL     1     -36.840   6.226   8.711  1.00  0.00    -0.388 OA
ATOM     17  H   UNL     1     -36.583   7.156   8.534  1.00  0.00    +0.211 HD
ENDBRANCH  14  16
ENDBRANCH  10  14
ENDBRANCH   9  10
ENDBRANCH   1   9
TORSDOF 4
ENDMDL
MODEL 6
REMARK VINA RESULT:    -3.853      9.437     10.965
REMARK INTER + INTRA:          -5.587
REMARK INTER:                  -5.568
REMARK INTRA:                  -0.019
REMARK UNBOUND:                 0.181
REMARK SMILES C[C@@H]1OCO[C@@H](CO)[C@@H](O)[C@H]1O
REMARK SMILES IDX 4 1 3 2 2 3 1 4 11 5 12 7 5 9 6 10 7 11 8 12 9 14 10 16
REMARK H PARENT 12 8 8 13 10 17
REMARK Flexibility Score:    8.900
ROOT
ATOM      1  C   UNL     1     -24.966   3.127  10.538  1.00  0.00    +0.324 C 
ENDROOT
BRANCH   1   2
ATOM      2  O   UNL     1     -23.869   2.437  11.121  1.00  0.00    -0.350 OA
BRANCH   2   3
ATOM      3  C   UNL     1     -23.306   1.394  10.322  1.00  0.00    +0.149 C 
ATOM      4  C   UNL     1     -21.815   1.368  10.648  1.00  0.00    +0.041 C 
BRANCH   3   5
ATOM      5  C   UNL     1     -23.935   0.001  10.526  1.00  0.00    +0.174 CG0
ATOM      6  G   UNL     1     -25.472  -0.065  10.381  1.00  0.00    +0.000 G0
BRANCH   5   7
ATOM      7  O   UNL     1     -23.350  -0.939   9.588  1.00  0.00    -0.388 OA
ATOM      8  H   UNL     1     -23.037  -0.426   8.822  1.00  0.00    +0.211 HD
ENDBRANCH   5   7
ENDBRANCH   3   5
ENDBRANCH   2   3
ENDBRANCH   1   2
BRANCH   1   9
ATOM      9  O   UNL     1     -26.027   2.298  10.062  1.00  0.00    -0.347 OA
BRANCH   9  10
ATOM     10  C   UNL     1     -26.270   1.150  10.883  1.00  0.00    +0.178 C 
BRANCH  10  11
ATOM     11  C   UNL     1     -27.783   0.896  10.921  1.00  0.00    +0.191 C 
BRANCH  11  12
ATOM     12  O   UNL     1     -28.362   1.092   9.634  1.00  0.00    -0.394 OA
ATOM     13  H   UNL     1     -27.634   1.348   9.041  1.00  0.00    +0.210 HD
ENDBRANCH  11  12
ENDBRANCH  10  11
BRANCH  10  14
ATOM     14  C   UNL     1     -25.480  -0.079  10.367  1.00  0.00    +0.177 CG0
ATOM     15  G   UNL     1     -23.946   0.015  10.520  1.00  0.00    +0.000 G0
BRANCH  14  16
ATOM     16  O   UNL     1     -25.724  -0.291   8.960  1.00  0.00    -0.388 OA
ATOM     17  H   UNL     1     -25.528   0.580   8.555  1.00  0.00    +0.211 HD
ENDBRANCH  14  16
ENDBRANCH  10  14
ENDBRANCH   9  10
ENDBRANCH   1   9
TORSDOF 4
ENDMDL
MODEL 7
REMARK VINA RESULT:    -3.758      9.703     10.884
REMARK INTER + INTRA:          -5.445
REMARK INTER:                  -5.606
REMARK INTRA:                   0.161
REMARK UNBOUND:                 0.181
REMARK SMILES C[C@@H]1OCO[C@@H](CO)[C@@H](O)[C@H]1O
REMARK SMILES IDX 4 1 3 2 2 3 1 4 11 5 12 7 5 9 6 10 7 11 8 12 9 14 10 16
REMARK H PARENT 12 8 8 13 10 17
REMARK Flexibility Score:    8.900
ROOT
ATOM      1  C   UNL     1     -36.098   3.207   7.747  1.00  0.00    +0.324 C 
ENDROOT
BRANCH   1   2
ATOM      2  O   UNL     1     -37.043   3.451   8.780  1.00  0.00    -0.350 OA
BRANCH   2   3
ATOM      3  C   UNL     1     -37.301   4.828   9.063  1.00  0.00    +0.149 C 
ATOM      4  C   UNL     1     -38.739   4.894   9.570  1.00  0.00    +0.041 C 
BRANCH   3   5
ATOM      5  C   UNL     1     -36.335   5.481  10.072  1.00  0.00    +0.174 CG0
ATOM      6  G   UNL     1     -34.839   5.146   9.877  1.00  0.00    +0.000 G0
BRANCH   5   7
ATOM      7  O   UNL     1     -36.486   6.923  10.028  1.00  0.00    -0.388 OA
ATOM      8  H   UNL     1     -36.240   7.211   9.131  1.00  0.00    +0.211 HD
ENDBRANCH   5   7
ENDBRANCH   3   5
ENDBRANCH   2   3
ENDBRANCH   1   2
BRANCH   1   9
ATOM      9  O   UNL     1     -34.734   3.440   8.098  1.00  0.00    -0.347 OA
BRANCH   9  10
ATOM     10  C   UNL     1     -34.533   3.669   9.497  1.00  0.00    +0.178 C 
BRANCH  10  11
ATOM     11  C   UNL     1     -33.098   3.257   9.852  1.00  0.00    +0.191 C 
BRANCH  11  12
ATOM     12  O   UNL     1     -32.739   2.049   9.189  1.00  0.00    -0.394 OA
ATOM     13  H   UNL     1     -33.208   2.053   8.337  1.00  0.00    +0.210 HD
ENDBRANCH  11  12
ENDBRANCH  10  11
BRANCH  10  14
ATOM     14  C   UNL     1     -34.830   5.144   9.868  1.00  0.00    +0.177 CG0
ATOM     15  G   UNL     1     -36.324   5.479  10.076  1.00  0.00    +0.000 G0
BRANCH  14  16
ATOM     16  O   UNL     1     -34.367   6.036   8.832  1.00  0.00    -0.388 OA
ATOM     17  H   UNL     1     -35.151   6.150   8.254  1.00  0.00    +0.211 HD
ENDBRANCH  14  16
ENDBRANCH  10  14
ENDBRANCH   9  10
ENDBRANCH   1   9
TORSDOF 4
ENDMDL
MODEL 8
REMARK VINA RESULT:    -3.541     10.346     12.179
REMARK INTER + INTRA:          -5.120
REMARK INTER:                  -5.254
REMARK INTRA:                   0.134
REMARK UNBOUND:                 0.181
REMARK SMILES C[C@@H]1OCO[C@@H](CO)[C@@H](O)[C@H]1O
REMARK SMILES IDX 4 1 3 2 2 3 1 4 11 5 12 7 5 9 6 10 7 11 8 12 9 14 10 16
REMARK H PARENT 12 8 8 13 10 17
REMARK Flexibility Score:    8.900
ROOT
ATOM      1  C   UNL     1     -33.703   3.931   8.835  1.00  0.00    +0.324 C 
ENDROOT
BRANCH   1   2
ATOM      2  O   UNL     1     -33.381   2.970   9.831  1.00  0.00    -0.350 OA
BRANCH   2   3
ATOM      3  C   UNL     1     -34.181   1.786   9.821  1.00  0.00    +0.149 C 
ATOM      4  C   UNL     1     -33.289   0.667  10.352  1.00  0.00    +0.041 C 
BRANCH   3   5
ATOM      5  C   UNL     1     -35.490   1.872  10.630  1.00  0.00    +0.174 CG0
ATOM      6  G   UNL     1     -36.290   3.184  10.469  1.00  0.00    +0.000 G0
BRANCH   5   7
ATOM      7  O   UNL     1     -36.358   0.766  10.274  1.00  0.00    -0.388 OA
ATOM      8  H   UNL     1     -36.463   0.214  11.070  1.00  0.00    +0.211 HD
ENDBRANCH   5   7
ENDBRANCH   3   5
ENDBRANCH   2   3
ENDBRANCH   1   2
BRANCH   1   9
ATOM      9  O   UNL     1     -34.934   4.627   9.031  1.00  0.00    -0.347 OA
BRANCH   9  10
ATOM     10  C   UNL     1     -35.470   4.483  10.350  1.00  0.00    +0.178 C 
BRANCH  10  11
ATOM     11  C   UNL     1     -36.285   5.742  10.680  1.00  0.00    +0.191 C 
BRANCH  11  12
ATOM     12  O   UNL     1     -36.309   6.634   9.569  1.00  0.00    -0.394 OA
ATOM     13  H   UNL     1     -36.276   6.080   8.771  1.00  0.00    +0.210 HD
ENDBRANCH  11  12
ENDBRANCH  10  11
BRANCH  10  14
ATOM     14  C   UNL     1     -36.313   3.189  10.470  1.00  0.00    +0.177 CG0
ATOM     15  G   UNL     1     -35.497   1.887  10.628  1.00  0.00    +0.000 G0
BRANCH  14  16
ATOM     16  O   UNL     1     -37.133   3.001   9.297  1.00  0.00    -0.388 OA
ATOM     17  H   UNL     1     -37.234   2.027   9.236  1.00  0.00    +0.211 HD
ENDBRANCH  14  16
ENDBRANCH  10  14
ENDBRANCH   9  10
ENDBRANCH   1   9
TORSDOF 4
ENDMDL
MODEL 9
REMARK VINA RESULT:    -3.406     10.147     11.883
REMARK INTER + INTRA:          -4.918
REMARK INTER:                  -5.725
REMARK INTRA:                   0.807
REMARK UNBOUND:                 0.181
REMARK SMILES C[C@@H]1OCO[C@@H](CO)[C@@H](O)[C@H]1O
REMARK SMILES IDX 4 1 3 2 2 3 1 4 11 5 12 7 5 9 6 10 7 11 8 12 9 14 10 16
REMARK H PARENT 12 8 8 13 10 17
REMARK Flexibility Score:    8.900
ROOT
ATOM      1  C   UNL     1     -38.133   6.117   9.185  1.00  0.00    +0.324 C 
ENDROOT
BRANCH   1   2
ATOM      2  O   UNL     1     -38.640   4.854   9.595  1.00  0.00    -0.350 OA
BRANCH   2   3
ATOM      3  C   UNL     1     -38.340   4.481  10.941  1.00  0.00    +0.149 C 
ATOM      4  C   UNL     1     -38.422   2.958  10.988  1.00  0.00    +0.041 C 
BRANCH   3   5
ATOM      5  C   UNL     1     -36.977   4.972  11.469  1.00  0.00    +0.174 CG0
ATOM      6  G   UNL     1     -35.774   4.743  10.527  1.00  0.00    +0.000 G0
BRANCH   5   7
ATOM      7  O   UNL     1     -37.053   6.389  11.772  1.00  0.00    -0.388 OA
ATOM      8  H   UNL     1     -37.582   6.806  11.069  1.00  0.00    +0.211 HD
ENDBRANCH   5   7
ENDBRANCH   3   5
ENDBRANCH   2   3
ENDBRANCH   1   2
BRANCH   1   9
ATOM      9  O   UNL     1     -36.773   6.120   8.751  1.00  0.00    -0.347 OA
BRANCH   9  10
ATOM     10  C   UNL     1     -36.080   4.898   9.030  1.00  0.00    +0.178 C 
BRANCH  10  11
ATOM     11  C   UNL     1     -34.808   4.859   8.173  1.00  0.00    +0.191 C 
BRANCH  11  12
ATOM     12  O   UNL     1     -34.199   6.146   8.111  1.00  0.00    -0.394 OA
ATOM     13  H   UNL     1     -33.243   5.993   8.023  1.00  0.00    +0.210 HD
ENDBRANCH  11  12
ENDBRANCH  10  11
BRANCH  10  14
ATOM     14  C   UNL     1     -35.774   4.764  10.543  1.00  0.00    +0.177 CG0
ATOM     15  G   UNL     1     -36.985   4.977  11.478  1.00  0.00    +0.000 G0
BRANCH  14  16
ATOM     16  O   UNL     1     -34.784   5.732  10.953  1.00  0.00    -0.388 OA
ATOM     17  H   UNL     1     -34.668   5.556  11.911  1.00  0.00    +0.211 HD
ENDBRANCH  14  16
ENDBRANCH  10  14
ENDBRANCH   9  10
ENDBRANCH   1   9
TORSDOF 4
ENDMDL
