REMARK SMILES CCOC(=O)C(C)(C)[Si](C)(C)C
REMARK SMILES IDX 4 1 5 2 3 3 2 4 1 5 6 6 7 7 8 8 9 9 10 10 11 11 12 12
REMARK H PARENT
ROOT
ATOM      1  C   UNL     1       0.845  -1.087   0.179  1.00  0.00    +0.308 C 
ATOM      2  O   UNL     1       0.890  -2.133  -0.456  1.00  0.00    -0.252 OA
ENDROOT
BRANCH   1   3
ATOM      3  O   UNL     1       1.875  -0.200   0.268  1.00  0.00    -0.466 OA
BRANCH   3   4
ATOM      4  C   UNL     1       3.057  -0.590  -0.441  1.00  0.00    +0.229 C 
ATOM      5  C   UNL     1       4.094   0.502  -0.263  1.00  0.00    +0.049 C 
ENDBRANCH   3   4
ENDBRANCH   1   3
BRANCH   1   6
ATOM      6  C   UNL     1      -0.399  -0.585   0.927  1.00  0.00    +0.056 C 
ATOM      7  C   UNL     1      -1.190  -1.805   1.450  1.00  0.00    +0.020 C 
ATOM      8  C   UNL     1      -0.030   0.308   2.132  1.00  0.00    +0.020 C 
BRANCH   6   9
ATOM      9 Si   UNL     1      -1.528   0.456  -0.403  1.00  0.00    +0.064 Si
ATOM     10  C   UNL     1      -3.048   1.096   0.491  1.00  0.00    -0.009 C 
ATOM     11  C   UNL     1      -2.027  -0.685  -1.802  1.00  0.00    -0.009 C 
ATOM     12  C   UNL     1      -0.508   1.887  -1.059  1.00  0.00    -0.009 C 
ENDBRANCH   6   9
ENDBRANCH   1   6
TORSDOF 4
