MODEL 1
REMARK VINA RESULT:    -8.639      0.000      0.000
REMARK INTER + INTRA:         -11.249
REMARK INTER:                 -10.660
REMARK INTRA:                  -0.590
REMARK UNBOUND:                -0.590
REMARK SMILES Oc1ccccc1C=NN=Cc1ccccc1O
REMARK SMILES IDX 8 1 9 2 7 3 2 4 3 5 6 6 4 7 5 8 1 9 10 11 11 12 12 13 17 14
REMARK SMILES IDX 13 15 16 16 14 17 15 18 18 19
REMARK H PARENT 1 10 18 20
ROOT
ATOM      1  C   UNL     1     -26.036   6.315   7.285  1.00  0.00    +0.147 C 
ATOM      2  N   UNL     1     -25.495   5.967   8.411  1.00  0.00    -0.158 NA
ENDROOT
BRANCH   1   3
ATOM      3  C   UNL     1     -26.282   7.731   6.951  1.00  0.00    +0.036 A 
ATOM      4  C   UNL     1     -25.246   8.613   6.621  1.00  0.00    +0.124 A 
ATOM      5  C   UNL     1     -25.527   9.942   6.312  1.00  0.00    +0.047 A 
ATOM      6  C   UNL     1     -27.604   8.189   6.970  1.00  0.00    +0.013 A 
ATOM      7  C   UNL     1     -26.845  10.397   6.332  1.00  0.00    +0.004 A 
ATOM      8  C   UNL     1     -27.883   9.523   6.660  1.00  0.00    +0.001 A 
BRANCH   4   9
ATOM      9  O   UNL     1     -23.930   8.239   6.581  1.00  0.00    -0.507 OA
ATOM     10  H   UNL     1     -23.598   8.252   7.506  1.00  0.00    +0.293 HD
ENDBRANCH   4   9
ENDBRANCH   1   3
BRANCH   2  11
ATOM     11  N   UNL     1     -25.374   4.584   8.479  1.00  0.00    -0.158 NA
ATOM     12  C   UNL     1     -25.002   4.199   9.659  1.00  0.00    +0.147 C 
BRANCH  12  13
ATOM     13  C   UNL     1     -24.785   2.788  10.046  1.00  0.00    +0.036 A 
ATOM     14  C   UNL     1     -25.537   1.708   9.568  1.00  0.00    +0.124 A 
ATOM     15  C   UNL     1     -23.746   2.548  10.960  1.00  0.00    +0.013 A 
ATOM     16  C   UNL     1     -25.252   0.408   9.997  1.00  0.00    +0.047 A 
ATOM     17  C   UNL     1     -23.463   1.248  11.386  1.00  0.00    +0.001 A 
ATOM     18  C   UNL     1     -24.217   0.180  10.905  1.00  0.00    +0.004 A 
BRANCH  14  19
ATOM     19  O   UNL     1     -26.557   1.896   8.678  1.00  0.00    -0.507 OA
ATOM     20  H   UNL     1     -27.182   1.159   8.732  1.00  0.00    +0.293 HD
ENDBRANCH  14  19
ENDBRANCH  12  13
ENDBRANCH   2  11
TORSDOF 5
ENDMDL
MODEL 2
REMARK VINA RESULT:    -8.636      0.224      7.946
REMARK INTER + INTRA:         -11.245
REMARK INTER:                 -10.787
REMARK INTRA:                  -0.458
REMARK UNBOUND:                -0.590
REMARK SMILES Oc1ccccc1C=NN=Cc1ccccc1O
REMARK SMILES IDX 8 1 9 2 7 3 2 4 3 5 6 6 4 7 5 8 1 9 10 11 11 12 12 13 17 14
REMARK SMILES IDX 13 15 16 16 14 17 15 18 18 19
REMARK H PARENT 1 10 18 20
ROOT
ATOM      1  C   UNL     1     -25.224   4.180   9.768  1.00  0.00    +0.147 C 
ATOM      2  N   UNL     1     -25.430   4.547   8.542  1.00  0.00    -0.158 NA
ENDROOT
BRANCH   1   3
ATOM      3  C   UNL     1     -24.782   2.812  10.102  1.00  0.00    +0.036 A 
ATOM      4  C   UNL     1     -25.418   1.675   9.589  1.00  0.00    +0.124 A 
ATOM      5  C   UNL     1     -24.965   0.403   9.932  1.00  0.00    +0.047 A 
ATOM      6  C   UNL     1     -23.689   2.668  10.963  1.00  0.00    +0.013 A 
ATOM      7  C   UNL     1     -23.874   0.261  10.791  1.00  0.00    +0.004 A 
ATOM      8  C   UNL     1     -23.237   1.391  11.306  1.00  0.00    +0.001 A 
BRANCH   4   9
ATOM      9  O   UNL     1     -26.491   1.735   8.743  1.00  0.00    -0.507 OA
ATOM     10  H   UNL     1     -26.337   2.492   8.135  1.00  0.00    +0.293 HD
ENDBRANCH   4   9
ENDBRANCH   1   3
BRANCH   2  11
ATOM     11  N   UNL     1     -25.838   5.875   8.499  1.00  0.00    -0.158 NA
ATOM     12  C   UNL     1     -25.764   6.354   7.298  1.00  0.00    +0.147 C 
BRANCH  12  13
ATOM     13  C   UNL     1     -26.128   7.740   6.928  1.00  0.00    +0.036 A 
ATOM     14  C   UNL     1     -25.212   8.723   6.532  1.00  0.00    +0.124 A 
ATOM     15  C   UNL     1     -27.493   8.061   6.990  1.00  0.00    +0.013 A 
ATOM     16  C   UNL     1     -25.657  10.006   6.202  1.00  0.00    +0.047 A 
ATOM     17  C   UNL     1     -27.935   9.344   6.659  1.00  0.00    +0.001 A 
ATOM     18  C   UNL     1     -27.017  10.315   6.267  1.00  0.00    +0.004 A 
BRANCH  14  19
ATOM     19  O   UNL     1     -23.875   8.453   6.458  1.00  0.00    -0.507 OA
ATOM     20  H   UNL     1     -23.375   9.132   6.935  1.00  0.00    +0.293 HD
ENDBRANCH  14  19
ENDBRANCH  12  13
ENDBRANCH   2  11
TORSDOF 5
ENDMDL
MODEL 3
REMARK VINA RESULT:    -8.573      1.937      8.339
REMARK INTER + INTRA:         -11.168
REMARK INTER:                 -10.540
REMARK INTRA:                  -0.628
REMARK UNBOUND:                -0.590
REMARK SMILES Oc1ccccc1C=NN=Cc1ccccc1O
REMARK SMILES IDX 8 1 9 2 7 3 2 4 3 5 6 6 4 7 5 8 1 9 10 11 11 12 12 13 17 14
REMARK SMILES IDX 13 15 16 16 14 17 15 18 18 19
REMARK H PARENT 1 10 18 20
ROOT
ATOM      1  C   UNL     1     -26.272   5.860   8.414  1.00  0.00    +0.147 C 
ATOM      2  N   UNL     1     -27.314   6.631   8.433  1.00  0.00    -0.158 NA
ENDROOT
BRANCH   1   3
ATOM      3  C   UNL     1     -26.181   4.662   9.270  1.00  0.00    +0.036 A 
ATOM      4  C   UNL     1     -27.258   3.785   9.448  1.00  0.00    +0.124 A 
ATOM      5  C   UNL     1     -27.125   2.667  10.266  1.00  0.00    +0.047 A 
ATOM      6  C   UNL     1     -24.967   4.411   9.919  1.00  0.00    +0.013 A 
ATOM      7  C   UNL     1     -25.914   2.417  10.912  1.00  0.00    +0.004 A 
ATOM      8  C   UNL     1     -24.836   3.287  10.740  1.00  0.00    +0.001 A 
BRANCH   4   9
ATOM      9  O   UNL     1     -28.475   3.964   8.847  1.00  0.00    -0.507 OA
ATOM     10  H   UNL     1     -28.916   4.712   9.307  1.00  0.00    +0.293 HD
ENDBRANCH   4   9
ENDBRANCH   1   3
BRANCH   2  11
ATOM     11  N   UNL     1     -27.151   7.683   7.539  1.00  0.00    -0.158 NA
ATOM     12  C   UNL     1     -28.050   8.598   7.717  1.00  0.00    +0.147 C 
BRANCH  12  13
ATOM     13  C   UNL     1     -28.143   9.843   6.922  1.00  0.00    +0.036 A 
ATOM     14  C   UNL     1     -27.107  10.362   6.136  1.00  0.00    +0.124 A 
ATOM     15  C   UNL     1     -29.367  10.528   6.981  1.00  0.00    +0.013 A 
ATOM     16  C   UNL     1     -27.295  11.548   5.420  1.00  0.00    +0.047 A 
ATOM     17  C   UNL     1     -29.553  11.712   6.264  1.00  0.00    +0.001 A 
ATOM     18  C   UNL     1     -28.516  12.221   5.485  1.00  0.00    +0.004 A 
BRANCH  14  19
ATOM     19  O   UNL     1     -25.900   9.729   6.050  1.00  0.00    -0.507 OA
ATOM     20  H   UNL     1     -25.430  10.020   5.254  1.00  0.00    +0.293 HD
ENDBRANCH  14  19
ENDBRANCH  12  13
ENDBRANCH   2  11
TORSDOF 5
ENDMDL
MODEL 4
REMARK VINA RESULT:    -8.481      2.010      2.821
REMARK INTER + INTRA:         -11.053
REMARK INTER:                 -10.553
REMARK INTRA:                  -0.500
REMARK UNBOUND:                -0.590
REMARK SMILES Oc1ccccc1C=NN=Cc1ccccc1O
REMARK SMILES IDX 8 1 9 2 7 3 2 4 3 5 6 6 4 7 5 8 1 9 10 11 11 12 12 13 17 14
REMARK SMILES IDX 13 15 16 16 14 17 15 18 18 19
REMARK H PARENT 1 10 18 20
ROOT
ATOM      1  C   UNL     1     -28.397   8.523   7.656  1.00  0.00    +0.147 C 
ATOM      2  N   UNL     1     -27.301   7.832   7.723  1.00  0.00    -0.158 NA
ENDROOT
BRANCH   1   3
ATOM      3  C   UNL     1     -28.462   9.801   6.922  1.00  0.00    +0.036 A 
ATOM      4  C   UNL     1     -27.434  10.229   6.073  1.00  0.00    +0.124 A 
ATOM      5  C   UNL     1     -27.540  11.444   5.400  1.00  0.00    +0.047 A 
ATOM      6  C   UNL     1     -29.598  10.600   7.095  1.00  0.00    +0.013 A 
ATOM      7  C   UNL     1     -28.673  12.239   5.573  1.00  0.00    +0.004 A 
ATOM      8  C   UNL     1     -29.701  11.819   6.419  1.00  0.00    +0.001 A 
BRANCH   4   9
ATOM      9  O   UNL     1     -26.294   9.505   5.854  1.00  0.00    -0.507 OA
ATOM     10  H   UNL     1     -25.536  10.072   6.117  1.00  0.00    +0.293 HD
ENDBRANCH   4   9
ENDBRANCH   1   3
BRANCH   2  11
ATOM     11  N   UNL     1     -27.505   6.677   8.468  1.00  0.00    -0.158 NA
ATOM     12  C   UNL     1     -26.455   5.919   8.462  1.00  0.00    +0.147 C 
BRANCH  12  13
ATOM     13  C   UNL     1     -26.359   4.619   9.163  1.00  0.00    +0.036 A 
ATOM     14  C   UNL     1     -27.440   3.758   9.389  1.00  0.00    +0.124 A 
ATOM     15  C   UNL     1     -25.084   4.255   9.623  1.00  0.00    +0.013 A 
ATOM     16  C   UNL     1     -27.245   2.549  10.064  1.00  0.00    +0.047 A 
ATOM     17  C   UNL     1     -24.892   3.046  10.297  1.00  0.00    +0.001 A 
ATOM     18  C   UNL     1     -25.973   2.195  10.517  1.00  0.00    +0.004 A 
BRANCH  14  19
ATOM     19  O   UNL     1     -28.697   4.074   8.958  1.00  0.00    -0.507 OA
ATOM     20  H   UNL     1     -29.351   3.532   9.425  1.00  0.00    +0.293 HD
ENDBRANCH  14  19
ENDBRANCH  12  13
ENDBRANCH   2  11
TORSDOF 5
ENDMDL
MODEL 5
REMARK VINA RESULT:    -8.263      6.632      8.977
REMARK INTER + INTRA:         -10.785
REMARK INTER:                 -10.025
REMARK INTRA:                  -0.760
REMARK UNBOUND:                -0.590
REMARK SMILES Oc1ccccc1C=NN=Cc1ccccc1O
REMARK SMILES IDX 8 1 9 2 7 3 2 4 3 5 6 6 4 7 5 8 1 9 10 11 11 12 12 13 17 14
REMARK SMILES IDX 13 15 16 16 14 17 15 18 18 19
REMARK H PARENT 1 10 18 20
ROOT
ATOM      1  C   UNL     1     -31.379   8.241   6.509  1.00  0.00    +0.147 C 
ATOM      2  N   UNL     1     -31.477   9.240   7.331  1.00  0.00    -0.158 NA
ENDROOT
BRANCH   1   3
ATOM      3  C   UNL     1     -32.364   7.143   6.506  1.00  0.00    +0.036 A 
ATOM      4  C   UNL     1     -32.683   6.420   7.663  1.00  0.00    +0.124 A 
ATOM      5  C   UNL     1     -33.620   5.391   7.612  1.00  0.00    +0.047 A 
ATOM      6  C   UNL     1     -32.991   6.827   5.296  1.00  0.00    +0.013 A 
ATOM      7  C   UNL     1     -34.244   5.078   6.404  1.00  0.00    +0.004 A 
ATOM      8  C   UNL     1     -33.932   5.794   5.247  1.00  0.00    +0.001 A 
BRANCH   4   9
ATOM      9  O   UNL     1     -32.112   6.670   8.881  1.00  0.00    -0.507 OA
ATOM     10  H   UNL     1     -32.203   5.850   9.416  1.00  0.00    +0.293 HD
ENDBRANCH   4   9
ENDBRANCH   1   3
BRANCH   2  11
ATOM     11  N   UNL     1     -30.430  10.132   7.131  1.00  0.00    -0.158 NA
ATOM     12  C   UNL     1     -29.406   9.547   6.596  1.00  0.00    +0.147 C 
BRANCH  12  13
ATOM     13  C   UNL     1     -28.136  10.229   6.261  1.00  0.00    +0.036 A 
ATOM     14  C   UNL     1     -28.045  11.521   5.730  1.00  0.00    +0.124 A 
ATOM     15  C   UNL     1     -26.959   9.503   6.504  1.00  0.00    +0.013 A 
ATOM     16  C   UNL     1     -26.794  12.078   5.446  1.00  0.00    +0.047 A 
ATOM     17  C   UNL     1     -25.710  10.062   6.220  1.00  0.00    +0.001 A 
ATOM     18  C   UNL     1     -25.630  11.348   5.692  1.00  0.00    +0.004 A 
BRANCH  14  19
ATOM     19  O   UNL     1     -29.165  12.262   5.478  1.00  0.00    -0.507 OA
ATOM     20  H   UNL     1     -29.147  12.587   4.566  1.00  0.00    +0.293 HD
ENDBRANCH  14  19
ENDBRANCH  12  13
ENDBRANCH   2  11
TORSDOF 5
ENDMDL
MODEL 6
REMARK VINA RESULT:    -8.191      6.679      7.642
REMARK INTER + INTRA:         -10.696
REMARK INTER:                  -9.983
REMARK INTRA:                  -0.712
REMARK UNBOUND:                -0.590
REMARK SMILES Oc1ccccc1C=NN=Cc1ccccc1O
REMARK SMILES IDX 8 1 9 2 7 3 2 4 3 5 6 6 4 7 5 8 1 9 10 11 11 12 12 13 17 14
REMARK SMILES IDX 13 15 16 16 14 17 15 18 18 19
REMARK H PARENT 1 10 18 20
ROOT
ATOM      1  C   UNL     1     -29.454   9.492   6.633  1.00  0.00    +0.147 C 
ATOM      2  N   UNL     1     -30.493  10.112   7.101  1.00  0.00    -0.158 NA
ENDROOT
BRANCH   1   3
ATOM      3  C   UNL     1     -28.218  10.215   6.276  1.00  0.00    +0.036 A 
ATOM      4  C   UNL     1     -28.233  11.530   5.797  1.00  0.00    +0.124 A 
ATOM      5  C   UNL     1     -27.041  12.173   5.473  1.00  0.00    +0.047 A 
ATOM      6  C   UNL     1     -26.999   9.545   6.429  1.00  0.00    +0.013 A 
ATOM      7  C   UNL     1     -25.826  11.503   5.626  1.00  0.00    +0.004 A 
ATOM      8  C   UNL     1     -25.804  10.192   6.103  1.00  0.00    +0.001 A 
BRANCH   4   9
ATOM      9  O   UNL     1     -29.384  12.250   5.621  1.00  0.00    -0.507 OA
ATOM     10  H   UNL     1     -30.039  11.909   6.269  1.00  0.00    +0.293 HD
ENDBRANCH   4   9
ENDBRANCH   1   3
BRANCH   2  11
ATOM     11  N   UNL     1     -31.518   9.209   7.355  1.00  0.00    -0.158 NA
ATOM     12  C   UNL     1     -31.463   8.193   6.554  1.00  0.00    +0.147 C 
BRANCH  12  13
ATOM     13  C   UNL     1     -32.417   7.062   6.573  1.00  0.00    +0.036 A 
ATOM     14  C   UNL     1     -32.723   6.300   7.708  1.00  0.00    +0.124 A 
ATOM     15  C   UNL     1     -33.041   6.755   5.353  1.00  0.00    +0.013 A 
ATOM     16  C   UNL     1     -33.640   5.249   7.622  1.00  0.00    +0.047 A 
ATOM     17  C   UNL     1     -33.958   5.704   5.271  1.00  0.00    +0.001 A 
ATOM     18  C   UNL     1     -34.256   4.952   6.405  1.00  0.00    +0.004 A 
BRANCH  14  19
ATOM     19  O   UNL     1     -32.139   6.564   8.914  1.00  0.00    -0.507 OA
ATOM     20  H   UNL     1     -32.821   6.681   9.592  1.00  0.00    +0.293 HD
ENDBRANCH  14  19
ENDBRANCH  12  13
ENDBRANCH   2  11
TORSDOF 5
ENDMDL
MODEL 7
REMARK VINA RESULT:    -8.116      7.637      9.007
REMARK INTER + INTRA:         -10.603
REMARK INTER:                 -10.245
REMARK INTRA:                  -0.358
REMARK UNBOUND:                -0.590
REMARK SMILES Oc1ccccc1C=NN=Cc1ccccc1O
REMARK SMILES IDX 8 1 9 2 7 3 2 4 3 5 6 6 4 7 5 8 1 9 10 11 11 12 12 13 17 14
REMARK SMILES IDX 13 15 16 16 14 17 15 18 18 19
REMARK H PARENT 1 10 18 20
ROOT
ATOM      1  C   UNL     1     -31.911   7.905   7.309  1.00  0.00    +0.147 C 
ATOM      2  N   UNL     1     -32.661   7.584   6.301  1.00  0.00    -0.158 NA
ENDROOT
BRANCH   1   3
ATOM      3  C   UNL     1     -31.088   9.128   7.302  1.00  0.00    +0.036 A 
ATOM      4  C   UNL     1     -31.602  10.379   7.667  1.00  0.00    +0.124 A 
ATOM      5  C   UNL     1     -30.786  11.507   7.645  1.00  0.00    +0.047 A 
ATOM      6  C   UNL     1     -29.748   9.016   6.914  1.00  0.00    +0.013 A 
ATOM      7  C   UNL     1     -29.451  11.392   7.258  1.00  0.00    +0.004 A 
ATOM      8  C   UNL     1     -28.931  10.150   6.892  1.00  0.00    +0.001 A 
BRANCH   4   9
ATOM      9  O   UNL     1     -32.900  10.568   8.057  1.00  0.00    -0.507 OA
ATOM     10  H   UNL     1     -32.876  11.030   8.925  1.00  0.00    +0.293 HD
ENDBRANCH   4   9
ENDBRANCH   1   3
BRANCH   2  11
ATOM     11  N   UNL     1     -33.331   6.393   6.558  1.00  0.00    -0.158 NA
ATOM     12  C   UNL     1     -34.231   6.545   7.475  1.00  0.00    +0.147 C 
BRANCH  12  13
ATOM     13  C   UNL     1     -35.110   5.462   7.971  1.00  0.00    +0.036 A 
ATOM     14  C   UNL     1     -36.095   5.625   8.952  1.00  0.00    +0.124 A 
ATOM     15  C   UNL     1     -34.917   4.195   7.397  1.00  0.00    +0.013 A 
ATOM     16  C   UNL     1     -36.875   4.536   9.353  1.00  0.00    +0.047 A 
ATOM     17  C   UNL     1     -35.698   3.109   7.799  1.00  0.00    +0.001 A 
ATOM     18  C   UNL     1     -36.675   3.281   8.776  1.00  0.00    +0.004 A 
BRANCH  14  19
ATOM     19  O   UNL     1     -36.316   6.840   9.536  1.00  0.00    -0.507 OA
ATOM     20  H   UNL     1     -37.041   6.772  10.176  1.00  0.00    +0.293 HD
ENDBRANCH  14  19
ENDBRANCH  12  13
ENDBRANCH   2  11
TORSDOF 5
ENDMDL
MODEL 8
REMARK VINA RESULT:    -7.964      6.608      9.706
REMARK INTER + INTRA:         -10.416
REMARK INTER:                  -9.971
REMARK INTRA:                  -0.445
REMARK UNBOUND:                -0.590
REMARK SMILES Oc1ccccc1C=NN=Cc1ccccc1O
REMARK SMILES IDX 8 1 9 2 7 3 2 4 3 5 6 6 4 7 5 8 1 9 10 11 11 12 12 13 17 14
REMARK SMILES IDX 13 15 16 16 14 17 15 18 18 19
REMARK H PARENT 1 10 18 20
ROOT
ATOM      1  C   UNL     1     -32.084   7.533   7.166  1.00  0.00    +0.147 C 
ATOM      2  N   UNL     1     -30.831   7.816   7.343  1.00  0.00    -0.158 NA
ENDROOT
BRANCH   1   3
ATOM      3  C   UNL     1     -32.731   6.412   7.874  1.00  0.00    +0.036 A 
ATOM      4  C   UNL     1     -34.104   6.155   7.772  1.00  0.00    +0.124 A 
ATOM      5  C   UNL     1     -34.671   5.084   8.458  1.00  0.00    +0.047 A 
ATOM      6  C   UNL     1     -31.929   5.588   8.670  1.00  0.00    +0.013 A 
ATOM      7  C   UNL     1     -33.868   4.264   9.252  1.00  0.00    +0.004 A 
ATOM      8  C   UNL     1     -32.500   4.514   9.359  1.00  0.00    +0.001 A 
BRANCH   4   9
ATOM      9  O   UNL     1     -34.953   6.914   7.013  1.00  0.00    -0.507 OA
ATOM     10  H   UNL     1     -34.897   7.835   7.352  1.00  0.00    +0.293 HD
ENDBRANCH   4   9
ENDBRANCH   1   3
BRANCH   2  11
ATOM     11  N   UNL     1     -30.470   8.909   6.565  1.00  0.00    -0.158 NA
ATOM     12  C   UNL     1     -29.346   9.419   6.957  1.00  0.00    +0.147 C 
BRANCH  12  13
ATOM     13  C   UNL     1     -28.697  10.591   6.329  1.00  0.00    +0.036 A 
ATOM     14  C   UNL     1     -29.346  11.798   6.041  1.00  0.00    +0.124 A 
ATOM     15  C   UNL     1     -27.336  10.452   6.012  1.00  0.00    +0.013 A 
ATOM     16  C   UNL     1     -28.642  12.849   5.446  1.00  0.00    +0.047 A 
ATOM     17  C   UNL     1     -26.635  11.504   5.418  1.00  0.00    +0.001 A 
ATOM     18  C   UNL     1     -27.289  12.701   5.135  1.00  0.00    +0.004 A 
BRANCH  14  19
ATOM     19  O   UNL     1     -30.668  11.977   6.333  1.00  0.00    -0.507 OA
ATOM     20  H   UNL     1     -31.125  12.362   5.571  1.00  0.00    +0.293 HD
ENDBRANCH  14  19
ENDBRANCH  12  13
ENDBRANCH   2  11
TORSDOF 5
ENDMDL
MODEL 9
REMARK VINA RESULT:    -7.943      2.195      2.924
REMARK INTER + INTRA:         -10.390
REMARK INTER:                  -9.828
REMARK INTRA:                  -0.563
REMARK UNBOUND:                -0.590
REMARK SMILES Oc1ccccc1C=NN=Cc1ccccc1O
REMARK SMILES IDX 8 1 9 2 7 3 2 4 3 5 6 6 4 7 5 8 1 9 10 11 11 12 12 13 17 14
REMARK SMILES IDX 13 15 16 16 14 17 15 18 18 19
REMARK H PARENT 1 10 18 20
ROOT
ATOM      1  C   UNL     1     -26.335   5.236   8.277  1.00  0.00    +0.147 C 
ATOM      2  N   UNL     1     -25.224   4.802   8.785  1.00  0.00    -0.158 NA
ENDROOT
BRANCH   1   3
ATOM      3  C   UNL     1     -26.433   6.572   7.660  1.00  0.00    +0.036 A 
ATOM      4  C   UNL     1     -27.585   7.363   7.765  1.00  0.00    +0.124 A 
ATOM      5  C   UNL     1     -27.631   8.619   7.166  1.00  0.00    +0.047 A 
ATOM      6  C   UNL     1     -25.327   7.049   6.949  1.00  0.00    +0.013 A 
ATOM      7  C   UNL     1     -26.526   9.093   6.457  1.00  0.00    +0.004 A 
ATOM      8  C   UNL     1     -25.376   8.310   6.348  1.00  0.00    +0.001 A 
BRANCH   4   9
ATOM      9  O   UNL     1     -28.705   6.965   8.443  1.00  0.00    -0.507 OA
ATOM     10  H   UNL     1     -28.808   7.571   9.210  1.00  0.00    +0.293 HD
ENDBRANCH   4   9
ENDBRANCH   1   3
BRANCH   2  11
ATOM     11  N   UNL     1     -25.398   3.522   9.300  1.00  0.00    -0.158 NA
ATOM     12  C   UNL     1     -26.650   3.197   9.346  1.00  0.00    +0.147 C 
BRANCH  12  13
ATOM     13  C   UNL     1     -27.158   1.900   9.846  1.00  0.00    +0.036 A 
ATOM     14  C   UNL     1     -26.584   0.657   9.552  1.00  0.00    +0.124 A 
ATOM     15  C   UNL     1     -28.295   1.953  10.667  1.00  0.00    +0.013 A 
ATOM     16  C   UNL     1     -27.141  -0.515  10.074  1.00  0.00    +0.047 A 
ATOM     17  C   UNL     1     -28.849   0.781  11.188  1.00  0.00    +0.001 A 
ATOM     18  C   UNL     1     -28.272  -0.451  10.891  1.00  0.00    +0.004 A 
BRANCH  14  19
ATOM     19  O   UNL     1     -25.478   0.559   8.757  1.00  0.00    -0.507 OA
ATOM     20  H   UNL     1     -25.745   0.444   7.833  1.00  0.00    +0.293 HD
ENDBRANCH  14  19
ENDBRANCH  12  13
ENDBRANCH   2  11
TORSDOF 5
ENDMDL
