MODEL 1
REMARK VINA RESULT:    -5.925      0.000      0.000
REMARK INTER + INTRA:          -6.492
REMARK INTER:                  -6.445
REMARK INTRA:                  -0.047
REMARK UNBOUND:                -0.047
REMARK SMILES CN(C)c1ccc(N)cc1
REMARK SMILES IDX 4 1 5 2 6 3 7 4 9 5 10 6 2 7 1 8 3 9 8 10
REMARK H PARENT 8 11 8 12
ROOT
ATOM      1  C   UNL     1     -28.848   9.988   6.764  1.00  0.00    +0.036 A 
ATOM      2  C   UNL     1     -27.644  10.255   6.091  1.00  0.00    +0.028 A 
ATOM      3  C   UNL     1     -27.395  11.483   5.455  1.00  0.00    +0.027 A 
ATOM      4  C   UNL     1     -28.331  12.509   5.493  1.00  0.00    +0.031 A 
ATOM      5  C   UNL     1     -29.563  12.242   6.079  1.00  0.00    +0.027 A 
ATOM      6  C   UNL     1     -29.808  11.013   6.714  1.00  0.00    +0.028 A 
ENDROOT
BRANCH   1   7
ATOM      7  N   UNL     1     -29.098   8.760   7.388  1.00  0.00    -0.378 N 
ATOM      8  C   UNL     1     -27.976   7.860   7.645  1.00  0.00    +0.143 C 
ATOM      9  C   UNL     1     -30.391   8.112   7.175  1.00  0.00    +0.143 C 
ENDBRANCH   1   7
BRANCH   4  10
ATOM     10  N   UNL     1     -28.129  13.685   4.764  1.00  0.00    -0.399 N 
ATOM     11  H   UNL     1     -28.785  13.807   3.999  1.00  0.00    +0.156 HD
ATOM     12  H   UNL     1     -27.167  13.826   4.475  1.00  0.00    +0.156 HD
ENDBRANCH   4  10
TORSDOF 2
ENDMDL
MODEL 2
REMARK VINA RESULT:    -5.596      1.804      3.832
REMARK INTER + INTRA:          -6.134
REMARK INTER:                  -6.083
REMARK INTRA:                  -0.051
REMARK UNBOUND:                -0.047
REMARK SMILES CN(C)c1ccc(N)cc1
REMARK SMILES IDX 4 1 5 2 6 3 7 4 9 5 10 6 2 7 1 8 3 9 8 10
REMARK H PARENT 8 11 8 12
ROOT
ATOM      1  C   UNL     1     -28.737  10.833   6.359  1.00  0.00    +0.036 A 
ATOM      2  C   UNL     1     -29.096   9.528   6.738  1.00  0.00    +0.028 A 
ATOM      3  C   UNL     1     -30.375   9.213   7.226  1.00  0.00    +0.027 A 
ATOM      4  C   UNL     1     -31.360  10.187   7.327  1.00  0.00    +0.031 A 
ATOM      5  C   UNL     1     -31.007  11.500   7.040  1.00  0.00    +0.027 A 
ATOM      6  C   UNL     1     -29.727  11.811   6.551  1.00  0.00    +0.028 A 
ENDROOT
BRANCH   1   7
ATOM      7  N   UNL     1     -27.459  11.147   5.882  1.00  0.00    -0.378 N 
ATOM      8  C   UNL     1     -27.252  12.431   5.213  1.00  0.00    +0.143 C 
ATOM      9  C   UNL     1     -26.583  10.061   5.446  1.00  0.00    +0.143 C 
ENDBRANCH   1   7
BRANCH   4  10
ATOM     10  N   UNL     1     -32.593   9.895   7.920  1.00  0.00    -0.399 N 
ATOM     11  H   UNL     1     -33.370   9.900   7.267  1.00  0.00    +0.156 HD
ATOM     12  H   UNL     1     -32.784  10.441   8.754  1.00  0.00    +0.156 HD
ENDBRANCH   4  10
TORSDOF 2
ENDMDL
MODEL 3
REMARK VINA RESULT:    -5.563      1.599      2.616
REMARK INTER + INTRA:          -6.098
REMARK INTER:                  -6.057
REMARK INTRA:                  -0.041
REMARK UNBOUND:                -0.047
REMARK SMILES CN(C)c1ccc(N)cc1
REMARK SMILES IDX 4 1 5 2 6 3 7 4 9 5 10 6 2 7 1 8 3 9 8 10
REMARK H PARENT 8 11 8 12
ROOT
ATOM      1  C   UNL     1     -29.366  10.649   6.635  1.00  0.00    +0.036 A 
ATOM      2  C   UNL     1     -29.101  11.860   5.972  1.00  0.00    +0.028 A 
ATOM      3  C   UNL     1     -27.844  12.151   5.414  1.00  0.00    +0.027 A 
ATOM      4  C   UNL     1     -26.807  11.228   5.469  1.00  0.00    +0.031 A 
ATOM      5  C   UNL     1     -27.017  10.059   6.192  1.00  0.00    +0.027 A 
ATOM      6  C   UNL     1     -28.275   9.772   6.748  1.00  0.00    +0.028 A 
ENDROOT
BRANCH   1   7
ATOM      7  N   UNL     1     -30.615  10.365   7.199  1.00  0.00    -0.378 N 
ATOM      8  C   UNL     1     -31.380   9.232   6.680  1.00  0.00    +0.143 C 
ATOM      9  C   UNL     1     -31.409  11.465   7.744  1.00  0.00    +0.143 C 
ENDBRANCH   1   7
BRANCH   4  10
ATOM     10  N   UNL     1     -25.528  11.565   5.016  1.00  0.00    -0.399 N 
ATOM     11  H   UNL     1     -24.826  11.577   5.750  1.00  0.00    +0.156 HD
ATOM     12  H   UNL     1     -25.505  12.404   4.446  1.00  0.00    +0.156 HD
ENDBRANCH   4  10
TORSDOF 2
ENDMDL
MODEL 4
REMARK VINA RESULT:    -5.115      1.991      4.745
REMARK INTER + INTRA:          -5.611
REMARK INTER:                  -5.561
REMARK INTRA:                  -0.050
REMARK UNBOUND:                -0.047
REMARK SMILES CN(C)c1ccc(N)cc1
REMARK SMILES IDX 4 1 5 2 6 3 7 4 9 5 10 6 2 7 1 8 3 9 8 10
REMARK H PARENT 8 11 8 12
ROOT
ATOM      1  C   UNL     1     -27.282   9.380   6.427  1.00  0.00    +0.036 A 
ATOM      2  C   UNL     1     -26.217   8.464   6.372  1.00  0.00    +0.028 A 
ATOM      3  C   UNL     1     -26.237   7.246   7.072  1.00  0.00    +0.027 A 
ATOM      4  C   UNL     1     -27.338   6.879   7.835  1.00  0.00    +0.031 A 
ATOM      5  C   UNL     1     -28.368   7.802   7.974  1.00  0.00    +0.027 A 
ATOM      6  C   UNL     1     -28.345   9.019   7.272  1.00  0.00    +0.028 A 
ENDROOT
BRANCH   1   7
ATOM      7  N   UNL     1     -27.257  10.597   5.736  1.00  0.00    -0.378 N 
ATOM      8  C   UNL     1     -25.971  11.260   5.525  1.00  0.00    +0.143 C 
ATOM      9  C   UNL     1     -28.416  11.483   5.828  1.00  0.00    +0.143 C 
ENDBRANCH   1   7
BRANCH   4  10
ATOM     10  N   UNL     1     -27.308   5.722   8.621  1.00  0.00    -0.399 N 
ATOM     11  H   UNL     1     -27.892   5.778   9.449  1.00  0.00    +0.156 HD
ATOM     12  H   UNL     1     -26.370   5.396   8.830  1.00  0.00    +0.156 HD
ENDBRANCH   4  10
TORSDOF 2
ENDMDL
MODEL 5
REMARK VINA RESULT:    -5.039      2.253      3.161
REMARK INTER + INTRA:          -5.529
REMARK INTER:                  -5.487
REMARK INTRA:                  -0.042
REMARK UNBOUND:                -0.047
REMARK SMILES CN(C)c1ccc(N)cc1
REMARK SMILES IDX 4 1 5 2 6 3 7 4 9 5 10 6 2 7 1 8 3 9 8 10
REMARK H PARENT 8 11 8 12
ROOT
ATOM      1  C   UNL     1     -28.510   8.782   7.255  1.00  0.00    +0.036 A 
ATOM      2  C   UNL     1     -29.802   8.230   7.275  1.00  0.00    +0.028 A 
ATOM      3  C   UNL     1     -30.960   9.024   7.226  1.00  0.00    +0.027 A 
ATOM      4  C   UNL     1     -30.873  10.407   7.123  1.00  0.00    +0.031 A 
ATOM      5  C   UNL     1     -29.610  10.984   7.185  1.00  0.00    +0.027 A 
ATOM      6  C   UNL     1     -28.454  10.186   7.235  1.00  0.00    +0.028 A 
ENDROOT
BRANCH   1   7
ATOM      7  N   UNL     1     -27.358   7.989   7.314  1.00  0.00    -0.378 N 
ATOM      8  C   UNL     1     -26.408   8.044   6.204  1.00  0.00    +0.143 C 
ATOM      9  C   UNL     1     -27.414   6.719   8.034  1.00  0.00    +0.143 C 
ENDBRANCH   1   7
BRANCH   4  10
ATOM     10  N   UNL     1     -32.022  11.201   7.190  1.00  0.00    -0.399 N 
ATOM     11  H   UNL     1     -32.340  11.534   6.286  1.00  0.00    +0.156 HD
ATOM     12  H   UNL     1     -31.964  11.945   7.878  1.00  0.00    +0.156 HD
ENDBRANCH   4  10
TORSDOF 2
ENDMDL
MODEL 6
REMARK VINA RESULT:    -5.010      2.873      5.894
REMARK INTER + INTRA:          -5.496
REMARK INTER:                  -5.450
REMARK INTRA:                  -0.046
REMARK UNBOUND:                -0.047
REMARK SMILES CN(C)c1ccc(N)cc1
REMARK SMILES IDX 4 1 5 2 6 3 7 4 9 5 10 6 2 7 1 8 3 9 8 10
REMARK H PARENT 8 11 8 12
ROOT
ATOM      1  C   UNL     1     -26.787   7.748   7.147  1.00  0.00    +0.036 A 
ATOM      2  C   UNL     1     -25.507   7.205   6.937  1.00  0.00    +0.028 A 
ATOM      3  C   UNL     1     -25.120   5.966   7.474  1.00  0.00    +0.027 A 
ATOM      4  C   UNL     1     -26.010   5.202   8.219  1.00  0.00    +0.031 A 
ATOM      5  C   UNL     1     -27.252   5.753   8.512  1.00  0.00    +0.027 A 
ATOM      6  C   UNL     1     -27.636   6.993   7.973  1.00  0.00    +0.028 A 
ENDROOT
BRANCH   1   7
ATOM      7  N   UNL     1     -27.167   8.988   6.619  1.00  0.00    -0.378 N 
ATOM      8  C   UNL     1     -28.316   9.679   7.201  1.00  0.00    +0.143 C 
ATOM      9  C   UNL     1     -26.923   9.256   5.203  1.00  0.00    +0.143 C 
ENDBRANCH   1   7
BRANCH   4  10
ATOM     10  N   UNL     1     -25.587   4.026   8.848  1.00  0.00    -0.399 N 
ATOM     11  H   UNL     1     -25.188   4.178   9.769  1.00  0.00    +0.156 HD
ATOM     12  H   UNL     1     -25.001   3.440   8.263  1.00  0.00    +0.156 HD
ENDBRANCH   4  10
TORSDOF 2
ENDMDL
MODEL 7
REMARK VINA RESULT:    -4.951      3.845      5.144
REMARK INTER + INTRA:          -5.433
REMARK INTER:                  -5.390
REMARK INTRA:                  -0.043
REMARK UNBOUND:                -0.047
REMARK SMILES CN(C)c1ccc(N)cc1
REMARK SMILES IDX 4 1 5 2 6 3 7 4 9 5 10 6 2 7 1 8 3 9 8 10
REMARK H PARENT 8 11 8 12
ROOT
ATOM      1  C   UNL     1     -26.251   5.916   8.375  1.00  0.00    +0.036 A 
ATOM      2  C   UNL     1     -25.063   6.225   7.689  1.00  0.00    +0.028 A 
ATOM      3  C   UNL     1     -24.980   7.285   6.771  1.00  0.00    +0.027 A 
ATOM      4  C   UNL     1     -26.076   8.102   6.522  1.00  0.00    +0.031 A 
ATOM      5  C   UNL     1     -27.284   7.768   7.123  1.00  0.00    +0.027 A 
ATOM      6  C   UNL     1     -27.363   6.706   8.041  1.00  0.00    +0.028 A 
ENDROOT
BRANCH   1   7
ATOM      7  N   UNL     1     -26.334   4.853   9.282  1.00  0.00    -0.378 N 
ATOM      8  C   UNL     1     -25.143   4.482  10.043  1.00  0.00    +0.143 C 
ATOM      9  C   UNL     1     -27.272   3.766   9.009  1.00  0.00    +0.143 C 
ENDBRANCH   1   7
BRANCH   4  10
ATOM     10  N   UNL     1     -26.024   9.082   5.526  1.00  0.00    -0.399 N 
ATOM     11  H   UNL     1     -25.969  10.028   5.888  1.00  0.00    +0.156 HD
ATOM     12  H   UNL     1     -26.742   8.979   4.816  1.00  0.00    +0.156 HD
ENDBRANCH   4  10
TORSDOF 2
ENDMDL
MODEL 8
REMARK VINA RESULT:    -4.935      8.607     11.698
REMARK INTER + INTRA:          -5.415
REMARK INTER:                  -5.379
REMARK INTRA:                  -0.036
REMARK UNBOUND:                -0.047
REMARK SMILES CN(C)c1ccc(N)cc1
REMARK SMILES IDX 4 1 5 2 6 3 7 4 9 5 10 6 2 7 1 8 3 9 8 10
REMARK H PARENT 8 11 8 12
ROOT
ATOM      1  C   UNL     1     -24.354   2.376  10.992  1.00  0.00    +0.036 A 
ATOM      2  C   UNL     1     -22.961   2.191  10.992  1.00  0.00    +0.028 A 
ATOM      3  C   UNL     1     -22.371   0.920  10.881  1.00  0.00    +0.027 A 
ATOM      4  C   UNL     1     -23.153  -0.218  10.733  1.00  0.00    +0.031 A 
ATOM      5  C   UNL     1     -24.533  -0.073  10.813  1.00  0.00    +0.027 A 
ATOM      6  C   UNL     1     -25.119   1.200  10.925  1.00  0.00    +0.028 A 
ENDROOT
BRANCH   1   7
ATOM      7  N   UNL     1     -24.939   3.642  11.112  1.00  0.00    -0.378 N 
ATOM      8  C   UNL     1     -25.910   3.870  12.181  1.00  0.00    +0.143 C 
ATOM      9  C   UNL     1     -25.126   4.450   9.909  1.00  0.00    +0.143 C 
ENDBRANCH   1   7
BRANCH   4  10
ATOM     10  N   UNL     1     -22.570  -1.489  10.738  1.00  0.00    -0.399 N 
ATOM     11  H   UNL     1     -22.070  -1.704  11.595  1.00  0.00    +0.156 HD
ATOM     12  H   UNL     1     -22.021  -1.689   9.908  1.00  0.00    +0.156 HD
ENDBRANCH   4  10
TORSDOF 2
ENDMDL
MODEL 9
REMARK VINA RESULT:    -4.792      7.689      9.838
REMARK INTER + INTRA:          -5.259
REMARK INTER:                  -5.210
REMARK INTRA:                  -0.049
REMARK UNBOUND:                -0.047
REMARK SMILES CN(C)c1ccc(N)cc1
REMARK SMILES IDX 4 1 5 2 6 3 7 4 9 5 10 6 2 7 1 8 3 9 8 10
REMARK H PARENT 8 11 8 12
ROOT
ATOM      1  C   UNL     1     -24.576   1.940  10.355  1.00  0.00    +0.036 A 
ATOM      2  C   UNL     1     -24.198   3.254  10.681  1.00  0.00    +0.028 A 
ATOM      3  C   UNL     1     -24.981   4.368  10.333  1.00  0.00    +0.027 A 
ATOM      4  C   UNL     1     -26.193   4.211   9.672  1.00  0.00    +0.031 A 
ATOM      5  C   UNL     1     -26.548   2.930   9.265  1.00  0.00    +0.027 A 
ATOM      6  C   UNL     1     -25.763   1.818   9.613  1.00  0.00    +0.028 A 
ENDROOT
BRANCH   1   7
ATOM      7  N   UNL     1     -23.790   0.832  10.693  1.00  0.00    -0.378 N 
ATOM      8  C   UNL     1     -22.335   0.971  10.682  1.00  0.00    +0.143 C 
ATOM      9  C   UNL     1     -24.297  -0.508  10.401  1.00  0.00    +0.143 C 
ENDBRANCH   1   7
BRANCH   4  10
ATOM     10  N   UNL     1     -26.912   5.325   9.227  1.00  0.00    -0.399 N 
ATOM     11  H   UNL     1     -26.557   5.719   8.361  1.00  0.00    +0.156 HD
ATOM     12  H   UNL     1     -27.057   6.029   9.943  1.00  0.00    +0.156 HD
ENDBRANCH   4  10
TORSDOF 2
ENDMDL
