REMARK SMILES c1ccn2nncc2c1
REMARK SMILES IDX 2 1 3 2 4 3 5 4 6 5 7 6 8 7 9 8 1 9
REMARK H PARENT
ROOT
ATOM      1  C   UNL     1      -1.715   0.819  -0.049  1.00  0.00    +0.020 A 
ATOM      2  C   UNL     1      -0.562   1.505  -0.128  1.00  0.00    +0.115 A 
ATOM      3  N   UNL     1       0.654   0.824  -0.084  1.00  0.00    -0.221 N 
ATOM      4  N   UNL     1       1.914   1.323  -0.148  1.00  0.00    -0.062 NA
ATOM      5  N   UNL     1       2.775   0.315  -0.069  1.00  0.00    -0.138 NA
ATOM      6  C   UNL     1       2.066  -0.845   0.047  1.00  0.00    +0.165 A 
ATOM      7  C   UNL     1       0.723  -0.564   0.041  1.00  0.00    +0.086 A 
ATOM      8  C   UNL     1      -0.492  -1.296   0.124  1.00  0.00    +0.030 A 
ATOM      9  C   UNL     1      -1.663  -0.630   0.081  1.00  0.00    +0.004 A 
ENDROOT
TORSDOF 0
