REMARK SMILES CCCCCCCCOB(OCCCCCCCC)OCCCCCCCC
REMARK SMILES IDX 10 1 9 2 8 3 7 4 6 5 5 6 4 7 3 8 2 9 1 10 11 11 12 12 13 13
REMARK SMILES IDX 14 14 15 15 16 16 17 17 18 18 19 19 20 20 21 21 22 22 23 23
REMARK SMILES IDX 24 24 25 25 26 26 27 27 28 28
REMARK H PARENT
ROOT
ATOM      1  B   UNL     1      -0.147  -0.042  -1.769  1.00  0.00    +0.639 B 
ENDROOT
BRANCH   1   2
ATOM      2  O   UNL     1      -0.990   1.114  -1.480  1.00  0.00    -0.386 OA
BRANCH   2   3
ATOM      3  C   UNL     1      -1.031   1.399  -0.110  1.00  0.00    +0.144 C 
BRANCH   3   4
ATOM      4  C   UNL     1      -1.926   2.616   0.149  1.00  0.00    +0.027 C 
BRANCH   4   5
ATOM      5  C   UNL     1      -1.332   3.777  -0.608  1.00  0.00    +0.002 C 
BRANCH   5   6
ATOM      6  C   UNL     1      -2.136   5.043  -0.426  1.00  0.00    +0.000 C 
BRANCH   6   7
ATOM      7  C   UNL     1      -2.223   5.471   1.010  1.00  0.00    -0.000 C 
BRANCH   7   8
ATOM      8  C   UNL     1      -0.894   5.750   1.643  1.00  0.00    -0.000 C 
BRANCH   8   9
ATOM      9  C   UNL     1      -0.172   6.853   0.915  1.00  0.00    -0.003 C 
ATOM     10  C   UNL     1      -1.013   8.111   0.964  1.00  0.00    +0.004 C 
ENDBRANCH   8   9
ENDBRANCH   7   8
ENDBRANCH   6   7
ENDBRANCH   5   6
ENDBRANCH   4   5
ENDBRANCH   3   4
ENDBRANCH   2   3
ENDBRANCH   1   2
BRANCH   1  11
ATOM     11  O   UNL     1       1.236   0.216  -2.184  1.00  0.00    -0.386 OA
BRANCH  11  12
ATOM     12  C   UNL     1       2.078  -0.353  -1.208  1.00  0.00    +0.144 C 
BRANCH  12  13
ATOM     13  C   UNL     1       3.514  -0.168  -1.529  1.00  0.00    +0.027 C 
BRANCH  13  14
ATOM     14  C   UNL     1       4.393  -0.749  -0.459  1.00  0.00    +0.002 C 
BRANCH  14  15
ATOM     15  C   UNL     1       4.171  -2.204  -0.309  1.00  0.00    +0.000 C 
BRANCH  15  16
ATOM     16  C   UNL     1       5.069  -2.803   0.754  1.00  0.00    -0.000 C 
BRANCH  16  17
ATOM     17  C   UNL     1       6.510  -2.628   0.417  1.00  0.00    -0.000 C 
BRANCH  17  18
ATOM     18  C   UNL     1       7.396  -3.252   1.494  1.00  0.00    -0.003 C 
ATOM     19  C   UNL     1       7.080  -4.726   1.583  1.00  0.00    +0.004 C 
ENDBRANCH  17  18
ENDBRANCH  16  17
ENDBRANCH  15  16
ENDBRANCH  14  15
ENDBRANCH  13  14
ENDBRANCH  12  13
ENDBRANCH  11  12
ENDBRANCH   1  11
BRANCH   1  20
ATOM     20  O   UNL     1      -0.786  -1.331  -1.950  1.00  0.00    -0.386 OA
BRANCH  20  21
ATOM     21  C   UNL     1      -1.669  -1.269  -2.986  1.00  0.00    +0.144 C 
BRANCH  21  22
ATOM     22  C   UNL     1      -2.339  -2.581  -3.223  1.00  0.00    +0.027 C 
BRANCH  22  23
ATOM     23  C   UNL     1      -3.171  -3.023  -2.075  1.00  0.00    +0.002 C 
BRANCH  23  24
ATOM     24  C   UNL     1      -2.407  -3.212  -0.824  1.00  0.00    +0.000 C 
BRANCH  24  25
ATOM     25  C   UNL     1      -3.305  -3.738   0.311  1.00  0.00    -0.000 C 
BRANCH  25  26
ATOM     26  C   UNL     1      -4.435  -2.792   0.619  1.00  0.00    -0.000 C 
BRANCH  26  27
ATOM     27  C   UNL     1      -5.259  -3.409   1.756  1.00  0.00    -0.003 C 
ATOM     28  C   UNL     1      -6.386  -2.444   2.048  1.00  0.00    +0.004 C 
ENDBRANCH  26  27
ENDBRANCH  25  26
ENDBRANCH  24  25
ENDBRANCH  23  24
ENDBRANCH  22  23
ENDBRANCH  21  22
ENDBRANCH  20  21
ENDBRANCH   1  20
TORSDOF 24
