REMARK SMILES C=CCC1(O)C(c2ccccc2)=C(c2ccccc2)C(c2ccccc2)=C1c1ccccc1
REMARK SMILES IDX 4 1 6 2 13 3 20 4 27 5 5 6 3 8 2 9 1 10 7 11 8 12 12 13 9 14
REMARK SMILES IDX 11 15 10 16 28 17 29 18 33 19 30 20 32 21 31 22 14 23 15 24
REMARK SMILES IDX 19 25 16 26 18 27 17 28 21 29 22 30 26 31 23 32 25 33 24 34
REMARK H PARENT 5 7
ROOT
ATOM      1  C   UNL     1      -0.114  -1.605   0.328  1.00  0.00    +0.120 C 
ATOM      2  C   UNL     1       1.052  -0.643   0.155  1.00  0.00    +0.004 C 
ATOM      3  C   UNL     1       0.603   0.574  -0.221  1.00  0.00    -0.003 C 
ATOM      4  C   UNL     1      -0.857   0.535  -0.347  1.00  0.00    -0.003 C 
ATOM      5  C   UNL     1      -1.294  -0.709  -0.044  1.00  0.00    +0.004 C 
ENDROOT
BRANCH   1   6
ATOM      6  O   UNL     1      -0.010  -2.662  -0.628  1.00  0.00    -0.380 OA
ATOM      7  H   UNL     1       0.846  -3.090  -0.464  1.00  0.00    +0.212 HD
ENDBRANCH   1   6
BRANCH   1   8
ATOM      8  C   UNL     1      -0.301  -2.176   1.765  1.00  0.00    +0.072 C 
BRANCH   8   9
ATOM      9  C   UNL     1       0.741  -3.163   2.239  1.00  0.00    -0.031 C 
ATOM     10  C   UNL     1       1.420  -3.047   3.388  1.00  0.00    +0.004 C 
ENDBRANCH   8   9
ENDBRANCH   1   8
BRANCH   2  11
ATOM     11  C   UNL     1       2.456  -1.041   0.264  1.00  0.00    -0.019 A 
ATOM     12  C   UNL     1       3.183  -0.790   1.432  1.00  0.00    +0.008 A 
ATOM     13  C   UNL     1       3.102  -1.637  -0.828  1.00  0.00    +0.008 A 
ATOM     14  C   UNL     1       4.527  -1.156   1.520  1.00  0.00    +0.001 A 
ATOM     15  C   UNL     1       4.446  -2.002  -0.740  1.00  0.00    +0.001 A 
ATOM     16  C   UNL     1       5.157  -1.766   0.435  1.00  0.00    +0.000 A 
ENDBRANCH   2  11
BRANCH   5  17
ATOM     17  C   UNL     1      -2.687  -1.186  -0.026  1.00  0.00    -0.019 A 
ATOM     18  C   UNL     1      -3.075  -2.310  -0.765  1.00  0.00    +0.008 A 
ATOM     19  C   UNL     1      -3.652  -0.530   0.752  1.00  0.00    +0.008 A 
ATOM     20  C   UNL     1      -4.396  -2.766  -0.732  1.00  0.00    +0.001 A 
ATOM     21  C   UNL     1      -4.973  -0.984   0.785  1.00  0.00    +0.001 A 
ATOM     22  C   UNL     1      -5.344  -2.103   0.043  1.00  0.00    +0.000 A 
ENDBRANCH   5  17
BRANCH   3  23
ATOM     23  C   UNL     1       1.466   1.717  -0.546  1.00  0.00    -0.017 A 
ATOM     24  C   UNL     1       2.056   2.478   0.470  1.00  0.00    +0.009 A 
ATOM     25  C   UNL     1       1.690   2.069  -1.883  1.00  0.00    +0.009 A 
ATOM     26  C   UNL     1       2.867   3.570   0.153  1.00  0.00    +0.001 A 
ATOM     27  C   UNL     1       2.499   3.161  -2.198  1.00  0.00    +0.001 A 
ATOM     28  C   UNL     1       3.088   3.910  -1.181  1.00  0.00    +0.000 A 
ENDBRANCH   3  23
BRANCH   4  29
ATOM     29  C   UNL     1      -1.707   1.658  -0.777  1.00  0.00    -0.017 A 
ATOM     30  C   UNL     1      -1.762   2.834  -0.018  1.00  0.00    +0.009 A 
ATOM     31  C   UNL     1      -2.457   1.575  -1.958  1.00  0.00    +0.009 A 
ATOM     32  C   UNL     1      -2.560   3.904  -0.428  1.00  0.00    +0.001 A 
ATOM     33  C   UNL     1      -3.256   2.645  -2.366  1.00  0.00    +0.001 A 
ATOM     34  C   UNL     1      -3.307   3.809  -1.601  1.00  0.00    +0.000 A 
ENDBRANCH   4  29
TORSDOF 7
