MODEL 1
REMARK VINA RESULT:    -7.976      0.000      0.000
REMARK INTER + INTRA:          -9.150
REMARK INTER:                  -8.909
REMARK INTRA:                  -0.241
REMARK UNBOUND:                -0.241
REMARK SMILES Cc1ccnc(N=Cc2ccccc2)c1
REMARK SMILES IDX 1 1 2 2 15 3 6 4 5 5 4 6 3 7 7 8 8 9 9 10 10 11 14 12 11 13
REMARK SMILES IDX 13 14 12 15
REMARK H PARENT
ROOT
ATOM      1  C   UNL     1     -27.511   3.856   8.987  1.00  0.00    +0.044 C 
ATOM      2  C   UNL     1     -26.756   5.077   8.561  1.00  0.00    -0.046 A 
ATOM      3  C   UNL     1     -27.433   6.221   8.131  1.00  0.00    +0.052 A 
ATOM      4  C   UNL     1     -26.707   7.329   7.709  1.00  0.00    +0.151 A 
ATOM      5  N   UNL     1     -25.358   7.352   7.692  1.00  0.00    -0.237 NA
ATOM      6  C   UNL     1     -24.720   6.234   8.098  1.00  0.00    +0.114 A 
ATOM      7  C   UNL     1     -25.363   5.085   8.528  1.00  0.00    +0.023 A 
ENDROOT
BRANCH   4   8
ATOM      8  N   UNL     1     -27.410   8.473   7.306  1.00  0.00    -0.237 NA
ATOM      9  C   UNL     1     -26.782   9.379   6.628  1.00  0.00    +0.121 C 
BRANCH   9  10
ATOM     10  C   UNL     1     -27.456  10.615   6.176  1.00  0.00    -0.007 A 
ATOM     11  C   UNL     1     -26.781  11.558   5.396  1.00  0.00    +0.010 A 
ATOM     12  C   UNL     1     -28.788  10.827   6.543  1.00  0.00    +0.010 A 
ATOM     13  C   UNL     1     -27.440  12.716   4.984  1.00  0.00    +0.001 A 
ATOM     14  C   UNL     1     -29.444  11.987   6.126  1.00  0.00    +0.001 A 
ATOM     15  C   UNL     1     -28.769  12.930   5.348  1.00  0.00    +0.000 A 
ENDBRANCH   9  10
ENDBRANCH   4   8
TORSDOF 2
ENDMDL
MODEL 2
REMARK VINA RESULT:    -7.765      1.084      6.573
REMARK INTER + INTRA:          -8.913
REMARK INTER:                  -8.641
REMARK INTRA:                  -0.272
REMARK UNBOUND:                -0.241
REMARK SMILES Cc1ccnc(N=Cc2ccccc2)c1
REMARK SMILES IDX 1 1 2 2 15 3 6 4 5 5 4 6 3 7 7 8 8 9 9 10 10 11 14 12 11 13
REMARK SMILES IDX 13 14 12 15
REMARK H PARENT
ROOT
ATOM      1  C   UNL     1     -29.812  11.522   6.273  1.00  0.00    +0.044 C 
ATOM      2  C   UNL     1     -28.386  11.080   6.150  1.00  0.00    -0.046 A 
ATOM      3  C   UNL     1     -27.944   9.914   6.779  1.00  0.00    +0.052 A 
ATOM      4  C   UNL     1     -26.607   9.544   6.676  1.00  0.00    +0.151 A 
ATOM      5  N   UNL     1     -25.702  10.272   5.988  1.00  0.00    -0.237 NA
ATOM      6  C   UNL     1     -26.143  11.403   5.398  1.00  0.00    +0.114 A 
ATOM      7  C   UNL     1     -27.454  11.848   5.454  1.00  0.00    +0.023 A 
ENDROOT
BRANCH   4   8
ATOM      8  N   UNL     1     -26.194   8.357   7.295  1.00  0.00    -0.237 NA
ATOM      9  C   UNL     1     -27.057   7.405   7.447  1.00  0.00    +0.121 C 
BRANCH   9  10
ATOM     10  C   UNL     1     -26.695   6.128   8.098  1.00  0.00    -0.007 A 
ATOM     11  C   UNL     1     -27.668   5.168   8.390  1.00  0.00    +0.010 A 
ATOM     12  C   UNL     1     -25.355   5.892   8.418  1.00  0.00    +0.010 A 
ATOM     13  C   UNL     1     -27.300   3.971   9.006  1.00  0.00    +0.001 A 
ATOM     14  C   UNL     1     -24.991   4.692   9.033  1.00  0.00    +0.001 A 
ATOM     15  C   UNL     1     -25.963   3.735   9.326  1.00  0.00    +0.000 A 
ENDBRANCH   9  10
ENDBRANCH   4   8
TORSDOF 2
ENDMDL
MODEL 3
REMARK VINA RESULT:    -7.617      1.770      2.966
REMARK INTER + INTRA:          -8.748
REMARK INTER:                  -8.525
REMARK INTRA:                  -0.223
REMARK UNBOUND:                -0.241
REMARK SMILES Cc1ccnc(N=Cc2ccccc2)c1
REMARK SMILES IDX 1 1 2 2 15 3 6 4 5 5 4 6 3 7 7 8 8 9 9 10 10 11 14 12 11 13
REMARK SMILES IDX 13 14 12 15
REMARK H PARENT
ROOT
ATOM      1  C   UNL     1     -23.925   3.060  10.782  1.00  0.00    +0.044 C 
ATOM      2  C   UNL     1     -25.171   3.568  10.123  1.00  0.00    -0.046 A 
ATOM      3  C   UNL     1     -25.167   4.779   9.427  1.00  0.00    +0.052 A 
ATOM      4  C   UNL     1     -26.345   5.244   8.853  1.00  0.00    +0.151 A 
ATOM      5  N   UNL     1     -27.512   4.570   8.940  1.00  0.00    -0.237 NA
ATOM      6  C   UNL     1     -27.501   3.408   9.627  1.00  0.00    +0.114 A 
ATOM      7  C   UNL     1     -26.375   2.875  10.234  1.00  0.00    +0.023 A 
ENDROOT
BRANCH   4   8
ATOM      8  N   UNL     1     -26.310   6.449   8.140  1.00  0.00    -0.237 NA
ATOM      9  C   UNL     1     -27.429   7.026   7.843  1.00  0.00    +0.121 C 
BRANCH   9  10
ATOM     10  C   UNL     1     -27.470   8.295   7.086  1.00  0.00    -0.007 A 
ATOM     11  C   UNL     1     -26.615   8.515   6.002  1.00  0.00    +0.010 A 
ATOM     12  C   UNL     1     -28.384   9.280   7.473  1.00  0.00    +0.010 A 
ATOM     13  C   UNL     1     -26.674   9.723   5.306  1.00  0.00    +0.001 A 
ATOM     14  C   UNL     1     -28.440  10.486   6.772  1.00  0.00    +0.001 A 
ATOM     15  C   UNL     1     -27.585  10.706   5.690  1.00  0.00    +0.000 A 
ENDBRANCH   9  10
ENDBRANCH   4   8
TORSDOF 2
ENDMDL
MODEL 4
REMARK VINA RESULT:    -7.607      3.094      5.974
REMARK INTER + INTRA:          -8.736
REMARK INTER:                  -8.467
REMARK INTRA:                  -0.270
REMARK UNBOUND:                -0.241
REMARK SMILES Cc1ccnc(N=Cc2ccccc2)c1
REMARK SMILES IDX 1 1 2 2 15 3 6 4 5 5 4 6 3 7 7 8 8 9 9 10 10 11 14 12 11 13
REMARK SMILES IDX 13 14 12 15
REMARK H PARENT
ROOT
ATOM      1  C   UNL     1     -27.618  12.709   5.067  1.00  0.00    +0.044 C 
ATOM      2  C   UNL     1     -27.170  11.423   5.693  1.00  0.00    -0.046 A 
ATOM      3  C   UNL     1     -28.100  10.518   6.209  1.00  0.00    +0.052 A 
ATOM      4  C   UNL     1     -27.655   9.348   6.814  1.00  0.00    +0.151 A 
ATOM      5  N   UNL     1     -26.346   9.042   6.931  1.00  0.00    -0.237 NA
ATOM      6  C   UNL     1     -25.460   9.934   6.440  1.00  0.00    +0.114 A 
ATOM      7  C   UNL     1     -25.816  11.124   5.827  1.00  0.00    +0.023 A 
ENDROOT
BRANCH   4   8
ATOM      8  N   UNL     1     -28.609   8.445   7.302  1.00  0.00    -0.237 NA
ATOM      9  C   UNL     1     -29.804   8.478   6.806  1.00  0.00    +0.121 C 
BRANCH   9  10
ATOM     10  C   UNL     1     -30.864   7.561   7.277  1.00  0.00    -0.007 A 
ATOM     11  C   UNL     1     -30.671   6.755   8.402  1.00  0.00    +0.010 A 
ATOM     12  C   UNL     1     -32.072   7.513   6.574  1.00  0.00    +0.010 A 
ATOM     13  C   UNL     1     -31.688   5.898   8.823  1.00  0.00    +0.001 A 
ATOM     14  C   UNL     1     -33.087   6.655   7.001  1.00  0.00    +0.001 A 
ATOM     15  C   UNL     1     -32.894   5.849   8.124  1.00  0.00    +0.000 A 
ENDBRANCH   9  10
ENDBRANCH   4   8
TORSDOF 2
ENDMDL
MODEL 5
REMARK VINA RESULT:    -7.453      1.421      6.766
REMARK INTER + INTRA:          -8.565
REMARK INTER:                  -8.298
REMARK INTRA:                  -0.268
REMARK UNBOUND:                -0.241
REMARK SMILES Cc1ccnc(N=Cc2ccccc2)c1
REMARK SMILES IDX 1 1 2 2 15 3 6 4 5 5 4 6 3 7 7 8 8 9 9 10 10 11 14 12 11 13
REMARK SMILES IDX 13 14 12 15
REMARK H PARENT
ROOT
ATOM      1  C   UNL     1     -28.588  12.864   5.434  1.00  0.00    +0.044 C 
ATOM      2  C   UNL     1     -29.380  11.772   6.087  1.00  0.00    -0.046 A 
ATOM      3  C   UNL     1     -28.750  10.620   6.562  1.00  0.00    +0.052 A 
ATOM      4  C   UNL     1     -29.512   9.607   7.134  1.00  0.00    +0.151 A 
ATOM      5  N   UNL     1     -30.855   9.686   7.252  1.00  0.00    -0.237 NA
ATOM      6  C   UNL     1     -31.449  10.801   6.776  1.00  0.00    +0.114 A 
ATOM      7  C   UNL     1     -30.767  11.854   6.187  1.00  0.00    +0.023 A 
ENDROOT
BRANCH   4   8
ATOM      8  N   UNL     1     -28.854   8.472   7.625  1.00  0.00    -0.237 NA
ATOM      9  C   UNL     1     -27.697   8.166   7.133  1.00  0.00    +0.121 C 
BRANCH   9  10
ATOM     10  C   UNL     1     -26.947   6.979   7.596  1.00  0.00    -0.007 A 
ATOM     11  C   UNL     1     -27.571   5.984   8.353  1.00  0.00    +0.010 A 
ATOM     12  C   UNL     1     -25.594   6.866   7.263  1.00  0.00    +0.010 A 
ATOM     13  C   UNL     1     -26.840   4.874   8.778  1.00  0.00    +0.001 A 
ATOM     14  C   UNL     1     -24.866   5.754   7.689  1.00  0.00    +0.001 A 
ATOM     15  C   UNL     1     -25.490   4.760   8.446  1.00  0.00    +0.000 A 
ENDBRANCH   9  10
ENDBRANCH   4   8
TORSDOF 2
ENDMDL
MODEL 6
REMARK VINA RESULT:    -7.397      2.878      8.158
REMARK INTER + INTRA:          -8.502
REMARK INTER:                  -8.288
REMARK INTRA:                  -0.215
REMARK UNBOUND:                -0.241
REMARK SMILES Cc1ccnc(N=Cc2ccccc2)c1
REMARK SMILES IDX 1 1 2 2 15 3 6 4 5 5 4 6 3 7 7 8 8 9 9 10 10 11 14 12 11 13
REMARK SMILES IDX 13 14 12 15
REMARK H PARENT
ROOT
ATOM      1  C   UNL     1     -25.536   8.920   6.016  1.00  0.00    +0.044 C 
ATOM      2  C   UNL     1     -26.188   7.907   6.907  1.00  0.00    -0.046 A 
ATOM      3  C   UNL     1     -25.498   6.761   7.309  1.00  0.00    +0.052 A 
ATOM      4  C   UNL     1     -26.138   5.820   8.108  1.00  0.00    +0.151 A 
ATOM      5  N   UNL     1     -27.415   5.963   8.519  1.00  0.00    -0.237 NA
ATOM      6  C   UNL     1     -28.072   7.070   8.111  1.00  0.00    +0.114 A 
ATOM      7  C   UNL     1     -27.513   8.053   7.311  1.00  0.00    +0.023 A 
ENDROOT
BRANCH   4   8
ATOM      8  N   UNL     1     -25.416   4.691   8.517  1.00  0.00    -0.237 NA
ATOM      9  C   UNL     1     -25.767   4.094   9.610  1.00  0.00    +0.121 C 
BRANCH   9  10
ATOM     10  C   UNL     1     -25.048   2.902  10.108  1.00  0.00    -0.007 A 
ATOM     11  C   UNL     1     -23.792   3.019  10.709  1.00  0.00    +0.010 A 
ATOM     12  C   UNL     1     -25.649   1.648   9.969  1.00  0.00    +0.010 A 
ATOM     13  C   UNL     1     -23.135   1.877  11.169  1.00  0.00    +0.001 A 
ATOM     14  C   UNL     1     -24.988   0.508  10.433  1.00  0.00    +0.001 A 
ATOM     15  C   UNL     1     -23.732   0.625  11.031  1.00  0.00    +0.000 A 
ENDBRANCH   9  10
ENDBRANCH   4   8
TORSDOF 2
ENDMDL
MODEL 7
REMARK VINA RESULT:    -7.099      4.631      5.836
REMARK INTER + INTRA:          -8.169
REMARK INTER:                  -7.938
REMARK INTRA:                  -0.231
REMARK UNBOUND:                -0.241
REMARK SMILES Cc1ccnc(N=Cc2ccccc2)c1
REMARK SMILES IDX 1 1 2 2 15 3 6 4 5 5 4 6 3 7 7 8 8 9 9 10 10 11 14 12 11 13
REMARK SMILES IDX 13 14 12 15
REMARK H PARENT
ROOT
ATOM      1  C   UNL     1     -32.878   3.046  10.253  1.00  0.00    +0.044 C 
ATOM      2  C   UNL     1     -33.156   4.072   9.197  1.00  0.00    -0.046 A 
ATOM      3  C   UNL     1     -32.260   5.119   8.967  1.00  0.00    +0.052 A 
ATOM      4  C   UNL     1     -32.559   6.077   8.004  1.00  0.00    +0.151 A 
ATOM      5  N   UNL     1     -33.692   6.044   7.271  1.00  0.00    -0.237 NA
ATOM      6  C   UNL     1     -34.553   5.033   7.516  1.00  0.00    +0.114 A 
ATOM      7  C   UNL     1     -34.337   4.041   8.459  1.00  0.00    +0.023 A 
ENDROOT
BRANCH   4   8
ATOM      8  N   UNL     1     -31.633   7.104   7.775  1.00  0.00    -0.237 NA
ATOM      9  C   UNL     1     -32.068   8.319   7.677  1.00  0.00    +0.121 C 
BRANCH   9  10
ATOM     10  C   UNL     1     -31.151   9.452   7.429  1.00  0.00    -0.007 A 
ATOM     11  C   UNL     1     -31.546  10.767   7.689  1.00  0.00    +0.010 A 
ATOM     12  C   UNL     1     -29.874   9.186   6.926  1.00  0.00    +0.010 A 
ATOM     13  C   UNL     1     -30.661  11.818   7.444  1.00  0.00    +0.001 A 
ATOM     14  C   UNL     1     -28.992  10.241   6.684  1.00  0.00    +0.001 A 
ATOM     15  C   UNL     1     -29.387  11.555   6.942  1.00  0.00    +0.000 A 
ENDBRANCH   9  10
ENDBRANCH   4   8
TORSDOF 2
ENDMDL
MODEL 8
REMARK VINA RESULT:    -6.914      5.120      9.350
REMARK INTER + INTRA:          -7.963
REMARK INTER:                  -7.753
REMARK INTRA:                  -0.210
REMARK UNBOUND:                -0.241
REMARK SMILES Cc1ccnc(N=Cc2ccccc2)c1
REMARK SMILES IDX 1 1 2 2 15 3 6 4 5 5 4 6 3 7 7 8 8 9 9 10 10 11 14 12 11 13
REMARK SMILES IDX 13 14 12 15
REMARK H PARENT
ROOT
ATOM      1  C   UNL     1     -25.711   5.655   7.674  1.00  0.00    +0.044 C 
ATOM      2  C   UNL     1     -25.969   4.763   8.850  1.00  0.00    -0.046 A 
ATOM      3  C   UNL     1     -27.171   4.061   8.963  1.00  0.00    +0.052 A 
ATOM      4  C   UNL     1     -27.398   3.266  10.081  1.00  0.00    +0.151 A 
ATOM      5  N   UNL     1     -26.499   3.141  11.080  1.00  0.00    -0.237 NA
ATOM      6  C   UNL     1     -25.348   3.837  10.961  1.00  0.00    +0.114 A 
ATOM      7  C   UNL     1     -25.043   4.655   9.886  1.00  0.00    +0.023 A 
ENDROOT
BRANCH   4   8
ATOM      8  N   UNL     1     -28.602   2.552  10.159  1.00  0.00    -0.237 NA
ATOM      9  C   UNL     1     -28.625   1.450  10.837  1.00  0.00    +0.121 C 
BRANCH   9  10
ATOM     10  C   UNL     1     -29.856   0.641  10.957  1.00  0.00    -0.007 A 
ATOM     11  C   UNL     1     -30.764   0.860  11.997  1.00  0.00    +0.010 A 
ATOM     12  C   UNL     1     -30.101  -0.356  10.007  1.00  0.00    +0.010 A 
ATOM     13  C   UNL     1     -31.917   0.080  12.087  1.00  0.00    +0.001 A 
ATOM     14  C   UNL     1     -31.257  -1.133  10.101  1.00  0.00    +0.001 A 
ATOM     15  C   UNL     1     -32.163  -0.914  11.140  1.00  0.00    +0.000 A 
ENDBRANCH   9  10
ENDBRANCH   4   8
TORSDOF 2
ENDMDL
MODEL 9
REMARK VINA RESULT:    -6.730      6.150      8.928
REMARK INTER + INTRA:          -7.757
REMARK INTER:                  -7.488
REMARK INTRA:                  -0.270
REMARK UNBOUND:                -0.241
REMARK SMILES Cc1ccnc(N=Cc2ccccc2)c1
REMARK SMILES IDX 1 1 2 2 15 3 6 4 5 5 4 6 3 7 7 8 8 9 9 10 10 11 14 12 11 13
REMARK SMILES IDX 13 14 12 15
REMARK H PARENT
ROOT
ATOM      1  C   UNL     1     -31.052  -1.422  12.632  1.00  0.00    +0.044 C 
ATOM      2  C   UNL     1     -30.264  -0.397  13.390  1.00  0.00    -0.046 A 
ATOM      3  C   UNL     1     -29.408   0.482  12.722  1.00  0.00    +0.052 A 
ATOM      4  C   UNL     1     -28.663   1.401  13.453  1.00  0.00    +0.151 A 
ATOM      5  N   UNL     1     -28.727   1.484  14.798  1.00  0.00    -0.237 NA
ATOM      6  C   UNL     1     -29.549   0.618  15.429  1.00  0.00    +0.114 A 
ATOM      7  C   UNL     1     -30.322  -0.331  14.781  1.00  0.00    +0.023 A 
ENDROOT
BRANCH   4   8
ATOM      8  N   UNL     1     -27.830   2.288  12.757  1.00  0.00    -0.237 NA
ATOM      9  C   UNL     1     -27.811   2.234  11.465  1.00  0.00    +0.121 C 
BRANCH   9  10
ATOM     10  C   UNL     1     -26.952   3.133  10.665  1.00  0.00    -0.007 A 
ATOM     11  C   UNL     1     -25.677   3.495  11.111  1.00  0.00    +0.010 A 
ATOM     12  C   UNL     1     -27.436   3.618   9.446  1.00  0.00    +0.010 A 
ATOM     13  C   UNL     1     -24.887   4.346  10.336  1.00  0.00    +0.001 A 
ATOM     14  C   UNL     1     -26.641   4.467   8.674  1.00  0.00    +0.001 A 
ATOM     15  C   UNL     1     -25.369   4.830   9.120  1.00  0.00    +0.000 A 
ENDBRANCH   9  10
ENDBRANCH   4   8
TORSDOF 2
ENDMDL
