MODEL 1
REMARK VINA RESULT:    -6.880      0.000      0.000
REMARK INTER + INTRA:          -7.283
REMARK INTER:                  -7.283
REMARK INTRA:                   0.000
REMARK UNBOUND:                 0.000
REMARK SMILES Sc1cccc2c(S)cccc12
REMARK SMILES IDX 2 1 12 2 11 3 10 4 9 5 7 6 6 7 5 8 4 9 3 10 1 11 8 13
REMARK H PARENT 1 12 8 14
ROOT
ATOM      1  C   UNL     1     -29.257  11.205   6.247  1.00  0.00    +0.012 A 
ATOM      2  C   UNL     1     -28.596  10.011   6.653  1.00  0.00    -0.004 A 
ATOM      3  C   UNL     1     -29.253   8.962   7.341  1.00  0.00    +0.010 A 
ATOM      4  C   UNL     1     -28.591   7.797   7.724  1.00  0.00    +0.002 A 
ATOM      5  C   UNL     1     -27.244   7.647   7.437  1.00  0.00    +0.015 A 
ATOM      6  C   UNL     1     -26.547   8.661   6.769  1.00  0.00    +0.012 A 
ATOM      7  C   UNL     1     -27.209   9.856   6.363  1.00  0.00    -0.004 A 
ATOM      8  C   UNL     1     -26.551  10.905   5.676  1.00  0.00    +0.010 A 
ATOM      9  C   UNL     1     -27.213  12.070   5.293  1.00  0.00    +0.002 A 
ATOM     10  C   UNL     1     -28.560  12.220   5.580  1.00  0.00    +0.015 A 
ENDROOT
BRANCH   1  11
ATOM     11  S   UNL     1     -31.004  11.514   6.530  1.00  0.00    -0.143 SA
ATOM     12  H   UNL     1     -31.360  10.222   6.583  1.00  0.00    +0.108 HD
ENDBRANCH   1  11
BRANCH   6  13
ATOM     13  S   UNL     1     -24.800   8.353   6.487  1.00  0.00    -0.143 SA
ATOM     14  H   UNL     1     -24.766   7.180   7.137  1.00  0.00    +0.108 HD
ENDBRANCH   6  13
TORSDOF 2
ENDMDL
MODEL 2
REMARK VINA RESULT:    -6.860      0.030      4.666
REMARK INTER + INTRA:          -7.261
REMARK INTER:                  -7.261
REMARK INTRA:                   0.000
REMARK UNBOUND:                 0.000
REMARK SMILES Sc1cccc2c(S)cccc12
REMARK SMILES IDX 2 1 12 2 11 3 10 4 9 5 7 6 6 7 5 8 4 9 3 10 1 11 8 13
REMARK H PARENT 1 12 8 14
ROOT
ATOM      1  C   UNL     1     -26.553   8.671   6.811  1.00  0.00    +0.012 A 
ATOM      2  C   UNL     1     -27.212   9.862   6.390  1.00  0.00    -0.004 A 
ATOM      3  C   UNL     1     -26.544  10.915   5.720  1.00  0.00    +0.010 A 
ATOM      4  C   UNL     1     -27.206  12.071   5.309  1.00  0.00    +0.002 A 
ATOM      5  C   UNL     1     -28.561  12.211   5.562  1.00  0.00    +0.015 A 
ATOM      6  C   UNL     1     -29.263  11.202   6.231  1.00  0.00    +0.012 A 
ATOM      7  C   UNL     1     -28.604  10.011   6.652  1.00  0.00    -0.004 A 
ATOM      8  C   UNL     1     -29.272   8.957   7.322  1.00  0.00    +0.010 A 
ATOM      9  C   UNL     1     -28.610   7.802   7.733  1.00  0.00    +0.002 A 
ATOM     10  C   UNL     1     -27.255   7.661   7.480  1.00  0.00    +0.015 A 
ENDROOT
BRANCH   1  11
ATOM     11  S   UNL     1     -24.809   8.349   6.521  1.00  0.00    -0.143 SA
ATOM     12  H   UNL     1     -24.894   8.355   5.182  1.00  0.00    +0.108 HD
ENDBRANCH   1  11
BRANCH   6  13
ATOM     13  S   UNL     1     -31.007  11.524   6.521  1.00  0.00    -0.143 SA
ATOM     14  H   UNL     1     -31.192  10.500   7.368  1.00  0.00    +0.108 HD
ENDBRANCH   6  13
TORSDOF 2
ENDMDL
MODEL 3
REMARK VINA RESULT:    -6.702      2.284      3.571
REMARK INTER + INTRA:          -7.094
REMARK INTER:                  -7.094
REMARK INTRA:                   0.000
REMARK UNBOUND:                 0.000
REMARK SMILES Sc1cccc2c(S)cccc12
REMARK SMILES IDX 2 1 12 2 11 3 10 4 9 5 7 6 6 7 5 8 4 9 3 10 1 11 8 13
REMARK H PARENT 1 12 8 14
ROOT
ATOM      1  C   UNL     1     -30.648   9.235   7.323  1.00  0.00    +0.012 A 
ATOM      2  C   UNL     1     -29.454   9.637   6.656  1.00  0.00    -0.004 A 
ATOM      3  C   UNL     1     -28.448   8.722   6.262  1.00  0.00    +0.010 A 
ATOM      4  C   UNL     1     -27.289   9.132   5.604  1.00  0.00    +0.002 A 
ATOM      5  C   UNL     1     -27.098  10.476   5.325  1.00  0.00    +0.015 A 
ATOM      6  C   UNL     1     -28.060  11.420   5.705  1.00  0.00    +0.012 A 
ATOM      7  C   UNL     1     -29.253  11.019   6.372  1.00  0.00    -0.004 A 
ATOM      8  C   UNL     1     -30.259  11.933   6.766  1.00  0.00    +0.010 A 
ATOM      9  C   UNL     1     -31.418  11.523   7.424  1.00  0.00    +0.002 A 
ATOM     10  C   UNL     1     -31.609  10.179   7.703  1.00  0.00    +0.015 A 
ENDROOT
BRANCH   1  11
ATOM     11  S   UNL     1     -31.034   7.526   7.718  1.00  0.00    -0.143 SA
ATOM     12  H   UNL     1     -32.352   7.720   7.872  1.00  0.00    +0.108 HD
ENDBRANCH   1  11
BRANCH   6  13
ATOM     13  S   UNL     1     -27.674  13.130   5.310  1.00  0.00    -0.143 SA
ATOM     14  H   UNL     1     -28.804  13.641   5.819  1.00  0.00    +0.108 HD
ENDBRANCH   6  13
TORSDOF 2
ENDMDL
MODEL 4
REMARK VINA RESULT:    -6.697      2.264      3.700
REMARK INTER + INTRA:          -7.088
REMARK INTER:                  -7.088
REMARK INTRA:                   0.000
REMARK UNBOUND:                 0.000
REMARK SMILES Sc1cccc2c(S)cccc12
REMARK SMILES IDX 2 1 12 2 11 3 10 4 9 5 7 6 6 7 5 8 4 9 3 10 1 11 8 13
REMARK H PARENT 1 12 8 14
ROOT
ATOM      1  C   UNL     1     -28.068  11.389   5.785  1.00  0.00    +0.012 A 
ATOM      2  C   UNL     1     -29.270  10.996   6.441  1.00  0.00    -0.004 A 
ATOM      3  C   UNL     1     -30.268  11.918   6.838  1.00  0.00    +0.010 A 
ATOM      4  C   UNL     1     -31.442  11.514   7.472  1.00  0.00    +0.002 A 
ATOM      5  C   UNL     1     -31.651  10.170   7.735  1.00  0.00    +0.015 A 
ATOM      6  C   UNL     1     -30.688   9.221   7.372  1.00  0.00    +0.012 A 
ATOM      7  C   UNL     1     -29.486   9.614   6.717  1.00  0.00    -0.004 A 
ATOM      8  C   UNL     1     -28.488   8.692   6.320  1.00  0.00    +0.010 A 
ATOM      9  C   UNL     1     -27.314   9.096   5.686  1.00  0.00    +0.002 A 
ATOM     10  C   UNL     1     -27.105  10.440   5.422  1.00  0.00    +0.015 A 
ENDROOT
BRANCH   1  11
ATOM     11  S   UNL     1     -27.685  13.092   5.359  1.00  0.00    -0.143 SA
ATOM     12  H   UNL     1     -28.437  13.643   6.324  1.00  0.00    +0.108 HD
ENDBRANCH   1  11
BRANCH   6  13
ATOM     13  S   UNL     1     -31.071   7.518   7.799  1.00  0.00    -0.143 SA
ATOM     14  H   UNL     1     -31.947   7.325   6.802  1.00  0.00    +0.108 HD
ENDBRANCH   6  13
TORSDOF 2
ENDMDL
MODEL 5
REMARK VINA RESULT:    -6.656      0.795      3.563
REMARK INTER + INTRA:          -7.045
REMARK INTER:                  -7.045
REMARK INTRA:                   0.000
REMARK UNBOUND:                 0.000
REMARK SMILES Sc1cccc2c(S)cccc12
REMARK SMILES IDX 2 1 12 2 11 3 10 4 9 5 7 6 6 7 5 8 4 9 3 10 1 11 8 13
REMARK H PARENT 1 12 8 14
ROOT
ATOM      1  C   UNL     1     -26.083   9.600   6.284  1.00  0.00    +0.012 A 
ATOM      2  C   UNL     1     -27.448   9.386   6.632  1.00  0.00    -0.004 A 
ATOM      3  C   UNL     1     -27.913   8.189   7.229  1.00  0.00    +0.010 A 
ATOM      4  C   UNL     1     -29.251   8.000   7.568  1.00  0.00    +0.002 A 
ATOM      5  C   UNL     1     -30.172   9.004   7.313  1.00  0.00    +0.015 A 
ATOM      6  C   UNL     1     -29.763  10.201   6.714  1.00  0.00    +0.012 A 
ATOM      7  C   UNL     1     -28.398  10.415   6.367  1.00  0.00    -0.004 A 
ATOM      8  C   UNL     1     -27.934  11.612   5.770  1.00  0.00    +0.010 A 
ATOM      9  C   UNL     1     -26.595  11.801   5.430  1.00  0.00    +0.002 A 
ATOM     10  C   UNL     1     -25.675  10.797   5.685  1.00  0.00    +0.015 A 
ENDROOT
BRANCH   1  11
ATOM     11  S   UNL     1     -24.785   8.395   6.586  1.00  0.00    -0.143 SA
ATOM     12  H   UNL     1     -24.742   7.929   5.329  1.00  0.00    +0.108 HD
ENDBRANCH   1  11
BRANCH   6  13
ATOM     13  S   UNL     1     -31.062  11.406   6.412  1.00  0.00    -0.143 SA
ATOM     14  H   UNL     1     -31.299  11.030   5.146  1.00  0.00    +0.108 HD
ENDBRANCH   6  13
TORSDOF 2
ENDMDL
MODEL 6
REMARK VINA RESULT:    -6.563      1.472      3.546
REMARK INTER + INTRA:          -6.947
REMARK INTER:                  -6.947
REMARK INTRA:                   0.000
REMARK UNBOUND:                 0.000
REMARK SMILES Sc1cccc2c(S)cccc12
REMARK SMILES IDX 2 1 12 2 11 3 10 4 9 5 7 6 6 7 5 8 4 9 3 10 1 11 8 13
REMARK H PARENT 1 12 8 14
ROOT
ATOM      1  C   UNL     1     -30.371   9.251   7.237  1.00  0.00    +0.012 A 
ATOM      2  C   UNL     1     -29.650  10.331   6.651  1.00  0.00    -0.004 A 
ATOM      3  C   UNL     1     -30.267  11.540   6.249  1.00  0.00    +0.010 A 
ATOM      4  C   UNL     1     -29.544  12.589   5.684  1.00  0.00    +0.002 A 
ATOM      5  C   UNL     1     -28.178  12.458   5.495  1.00  0.00    +0.015 A 
ATOM      6  C   UNL     1     -27.524  11.277   5.865  1.00  0.00    +0.012 A 
ATOM      7  C   UNL     1     -28.245  10.196   6.452  1.00  0.00    -0.004 A 
ATOM      8  C   UNL     1     -27.628   8.987   6.853  1.00  0.00    +0.010 A 
ATOM      9  C   UNL     1     -28.351   7.938   7.419  1.00  0.00    +0.002 A 
ATOM     10  C   UNL     1     -29.717   8.070   7.608  1.00  0.00    +0.015 A 
ENDROOT
BRANCH   1  11
ATOM     11  S   UNL     1     -32.137   9.302   7.564  1.00  0.00    -0.143 SA
ATOM     12  H   UNL     1     -32.038   9.977   8.719  1.00  0.00    +0.108 HD
ENDBRANCH   1  11
BRANCH   6  13
ATOM     13  S   UNL     1     -25.758  11.226   5.538  1.00  0.00    -0.143 SA
ATOM     14  H   UNL     1     -25.799  10.134   4.761  1.00  0.00    +0.108 HD
ENDBRANCH   6  13
TORSDOF 2
ENDMDL
MODEL 7
REMARK VINA RESULT:    -6.114      5.308      7.069
REMARK INTER + INTRA:          -6.471
REMARK INTER:                  -6.471
REMARK INTRA:                   0.000
REMARK UNBOUND:                 0.000
REMARK SMILES Sc1cccc2c(S)cccc12
REMARK SMILES IDX 2 1 12 2 11 3 10 4 9 5 7 6 6 7 5 8 4 9 3 10 1 11 8 13
REMARK H PARENT 1 12 8 14
ROOT
ATOM      1  C   UNL     1     -31.826   7.391   6.550  1.00  0.00    +0.012 A 
ATOM      2  C   UNL     1     -32.326   6.428   7.473  1.00  0.00    -0.004 A 
ATOM      3  C   UNL     1     -31.745   6.206   8.744  1.00  0.00    +0.010 A 
ATOM      4  C   UNL     1     -32.252   5.263   9.638  1.00  0.00    +0.002 A 
ATOM      5  C   UNL     1     -33.357   4.506   9.282  1.00  0.00    +0.015 A 
ATOM      6  C   UNL     1     -33.960   4.682   8.031  1.00  0.00    +0.012 A 
ATOM      7  C   UNL     1     -33.460   5.645   7.108  1.00  0.00    -0.004 A 
ATOM      8  C   UNL     1     -34.042   5.867   5.837  1.00  0.00    +0.010 A 
ATOM      9  C   UNL     1     -33.535   6.809   4.943  1.00  0.00    +0.002 A 
ATOM     10  C   UNL     1     -32.430   7.566   5.299  1.00  0.00    +0.015 A 
ENDROOT
BRANCH   1  11
ATOM     11  S   UNL     1     -30.422   8.457   6.895  1.00  0.00    -0.143 SA
ATOM     12  H   UNL     1     -29.639   7.487   7.392  1.00  0.00    +0.108 HD
ENDBRANCH   1  11
BRANCH   6  13
ATOM     13  S   UNL     1     -35.365   3.616   7.686  1.00  0.00    -0.143 SA
ATOM     14  H   UNL     1     -34.880   2.544   8.330  1.00  0.00    +0.108 HD
ENDBRANCH   6  13
TORSDOF 2
ENDMDL
MODEL 8
REMARK VINA RESULT:    -6.110      5.299      7.285
REMARK INTER + INTRA:          -6.467
REMARK INTER:                  -6.467
REMARK INTRA:                   0.000
REMARK UNBOUND:                 0.000
REMARK SMILES Sc1cccc2c(S)cccc12
REMARK SMILES IDX 2 1 12 2 11 3 10 4 9 5 7 6 6 7 5 8 4 9 3 10 1 11 8 13
REMARK H PARENT 1 12 8 14
ROOT
ATOM      1  C   UNL     1     -33.937   4.674   8.020  1.00  0.00    +0.012 A 
ATOM      2  C   UNL     1     -33.442   5.638   7.095  1.00  0.00    -0.004 A 
ATOM      3  C   UNL     1     -34.015   5.846   5.818  1.00  0.00    +0.010 A 
ATOM      4  C   UNL     1     -33.522   6.800   4.929  1.00  0.00    +0.002 A 
ATOM      5  C   UNL     1     -32.431   7.574   5.290  1.00  0.00    +0.015 A 
ATOM      6  C   UNL     1     -31.822   7.398   6.538  1.00  0.00    +0.012 A 
ATOM      7  C   UNL     1     -32.317   6.433   7.462  1.00  0.00    -0.004 A 
ATOM      8  C   UNL     1     -31.743   6.226   8.740  1.00  0.00    +0.010 A 
ATOM      9  C   UNL     1     -32.236   5.272   9.629  1.00  0.00    +0.002 A 
ATOM     10  C   UNL     1     -33.328   4.498   9.268  1.00  0.00    +0.015 A 
ENDROOT
BRANCH   1  11
ATOM     11  S   UNL     1     -35.360   3.627   7.691  1.00  0.00    -0.143 SA
ATOM     12  H   UNL     1     -35.320   3.765   6.357  1.00  0.00    +0.108 HD
ENDBRANCH   1  11
BRANCH   6  13
ATOM     13  S   UNL     1     -30.399   8.444   6.867  1.00  0.00    -0.143 SA
ATOM     14  H   UNL     1     -29.515   7.440   6.961  1.00  0.00    +0.108 HD
ENDBRANCH   6  13
TORSDOF 2
ENDMDL
MODEL 9
REMARK VINA RESULT:    -5.374      9.072     11.178
REMARK INTER + INTRA:          -5.688
REMARK INTER:                  -5.688
REMARK INTRA:                   0.000
REMARK UNBOUND:                 0.000
REMARK SMILES Sc1cccc2c(S)cccc12
REMARK SMILES IDX 2 1 12 2 11 3 10 4 9 5 7 6 6 7 5 8 4 9 3 10 1 11 8 13
REMARK H PARENT 1 12 8 14
ROOT
ATOM      1  C   UNL     1     -35.142   4.964   8.048  1.00  0.00    +0.012 A 
ATOM      2  C   UNL     1     -36.188   5.009   9.014  1.00  0.00    -0.004 A 
ATOM      3  C   UNL     1     -36.727   6.221   9.509  1.00  0.00    +0.010 A 
ATOM      4  C   UNL     1     -37.756   6.246  10.449  1.00  0.00    +0.002 A 
ATOM      5  C   UNL     1     -38.274   5.054  10.931  1.00  0.00    +0.015 A 
ATOM      6  C   UNL     1     -37.766   3.830  10.480  1.00  0.00    +0.012 A 
ATOM      7  C   UNL     1     -36.720   3.785   9.514  1.00  0.00    -0.004 A 
ATOM      8  C   UNL     1     -36.180   2.573   9.019  1.00  0.00    +0.010 A 
ATOM      9  C   UNL     1     -35.152   2.549   8.078  1.00  0.00    +0.002 A 
ATOM     10  C   UNL     1     -34.634   3.740   7.597  1.00  0.00    +0.015 A 
ENDROOT
BRANCH   1  11
ATOM     11  S   UNL     1     -34.402   6.432   7.321  1.00  0.00    -0.143 SA
ATOM     12  H   UNL     1     -34.653   6.090   6.049  1.00  0.00    +0.108 HD
ENDBRANCH   1  11
BRANCH   6  13
ATOM     13  S   UNL     1     -38.506   2.362  11.206  1.00  0.00    -0.143 SA
ATOM     14  H   UNL     1     -38.146   2.643  12.467  1.00  0.00    +0.108 HD
ENDBRANCH   6  13
TORSDOF 2
ENDMDL
