REMARK SMILES CCOC(=O)C(C(=O)OCC)C(C)C
REMARK SMILES IDX 6 1 4 2 5 3 3 4 2 5 1 6 12 7 13 8 14 9 7 10 8 11 9 12 10 13
REMARK SMILES IDX 11 14
REMARK H PARENT
ROOT
ATOM      1  C   UNL     1      -0.133   0.256   0.922  1.00  0.00    +0.211 C 
ENDROOT
BRANCH   1   2
ATOM      2  C   UNL     1       1.346  -0.048   0.883  1.00  0.00    +0.320 C 
ATOM      3  O   UNL     1       2.024  -0.199   1.894  1.00  0.00    -0.251 OA
BRANCH   2   4
ATOM      4  O   UNL     1       1.830  -0.078  -0.387  1.00  0.00    -0.465 OA
BRANCH   4   5
ATOM      5  C   UNL     1       3.225  -0.381  -0.525  1.00  0.00    +0.229 C 
ATOM      6  C   UNL     1       3.433  -1.884  -0.550  1.00  0.00    +0.049 C 
ENDBRANCH   4   5
ENDBRANCH   2   4
ENDBRANCH   1   2
BRANCH   1   7
ATOM      7  C   UNL     1      -0.440   1.757   0.686  1.00  0.00    +0.008 C 
ATOM      8  C   UNL     1       0.244   2.646   1.731  1.00  0.00    +0.009 C 
ATOM      9  C   UNL     1      -0.095   2.250  -0.723  1.00  0.00    +0.009 C 
ENDBRANCH   1   7
BRANCH   1  10
ATOM     10  C   UNL     1      -0.930  -0.693   0.048  1.00  0.00    +0.320 C 
ATOM     11  O   UNL     1      -0.505  -1.742  -0.419  1.00  0.00    -0.251 OA
BRANCH  10  12
ATOM     12  O   UNL     1      -2.221  -0.270  -0.075  1.00  0.00    -0.465 OA
BRANCH  12  13
ATOM     13  C   UNL     1      -3.090  -1.109  -0.852  1.00  0.00    +0.229 C 
ATOM     14  C   UNL     1      -3.703  -2.182   0.028  1.00  0.00    +0.049 C 
ENDBRANCH  12  13
ENDBRANCH  10  12
ENDBRANCH   1  10
TORSDOF 7
