MODEL 1
REMARK VINA RESULT:    -6.769      0.000      0.000
REMARK INTER + INTRA:          -7.845
REMARK INTER:                  -7.758
REMARK INTRA:                  -0.087
REMARK UNBOUND:                -0.087
REMARK SMILES O=[N+]([O-])c1ccc(O)c(CCl)c1
REMARK SMILES IDX 7 1 6 2 5 3 4 4 12 5 9 6 8 7 10 9 11 10 2 11 1 12 3 13
REMARK H PARENT 8 8
ROOT
ATOM      1  C   UNL     1     -27.937  12.292   5.303  1.00  0.00    +0.120 A 
ATOM      2  C   UNL     1     -26.593  11.946   5.159  1.00  0.00    +0.053 A 
ATOM      3  C   UNL     1     -26.102  10.786   5.756  1.00  0.00    +0.089 A 
ATOM      4  C   UNL     1     -26.971   9.982   6.504  1.00  0.00    +0.270 A 
ATOM      5  C   UNL     1     -28.320  10.340   6.661  1.00  0.00    +0.094 A 
ATOM      6  C   UNL     1     -28.820  11.511   6.063  1.00  0.00    +0.015 A 
ENDROOT
BRANCH   1   7
ATOM      7  O   UNL     1     -28.338  13.431   4.665  1.00  0.00    -0.508 OA
ATOM      8  H   UNL     1     -28.492  13.225   3.725  1.00  0.00    +0.293 HD
ENDBRANCH   1   7
BRANCH   6   9
ATOM      9  C   UNL     1     -30.252  11.910   6.295  1.00  0.00    +0.149 C 
ATOM     10 Cl   UNL     1     -30.632  11.931   8.031  1.00  0.00    -0.121 Cl
ENDBRANCH   6   9
BRANCH   4  11
ATOM     11  N   UNL     1     -26.463   8.759   7.138  1.00  0.00    +0.062 N 
ATOM     12  O   UNL     1     -25.234   8.614   7.205  1.00  0.00    -0.258 OA
ATOM     13  O   UNL     1     -27.291   7.943   7.567  1.00  0.00    -0.258 OA
ENDBRANCH   4  11
TORSDOF 3
ENDMDL
MODEL 2
REMARK VINA RESULT:    -6.567      3.429      4.307
REMARK INTER + INTRA:          -7.614
REMARK INTER:                  -7.511
REMARK INTRA:                  -0.103
REMARK UNBOUND:                -0.087
REMARK SMILES O=[N+]([O-])c1ccc(O)c(CCl)c1
REMARK SMILES IDX 7 1 6 2 5 3 4 4 12 5 9 6 8 7 10 9 11 10 2 11 1 12 3 13
REMARK H PARENT 8 8
ROOT
ATOM      1  C   UNL     1     -31.911   9.892   7.643  1.00  0.00    +0.120 A 
ATOM      2  C   UNL     1     -31.266  11.126   7.746  1.00  0.00    +0.053 A 
ATOM      3  C   UNL     1     -29.910  11.232   7.446  1.00  0.00    +0.089 A 
ATOM      4  C   UNL     1     -29.206  10.089   7.048  1.00  0.00    +0.270 A 
ATOM      5  C   UNL     1     -29.853   8.845   6.959  1.00  0.00    +0.094 A 
ATOM      6  C   UNL     1     -31.221   8.731   7.264  1.00  0.00    +0.015 A 
ENDROOT
BRANCH   1   7
ATOM      7  O   UNL     1     -33.246   9.883   7.931  1.00  0.00    -0.508 OA
ATOM      8  H   UNL     1     -33.369  10.188   8.849  1.00  0.00    +0.293 HD
ENDBRANCH   1   7
BRANCH   6   9
ATOM      9  C   UNL     1     -31.880   7.380   7.224  1.00  0.00    +0.149 C 
ATOM     10 Cl   UNL     1     -32.454   7.000   5.586  1.00  0.00    -0.121 Cl
ENDBRANCH   6   9
BRANCH   4  11
ATOM     11  N   UNL     1     -27.776  10.191   6.730  1.00  0.00    +0.062 N 
ATOM     12  O   UNL     1     -27.451  10.899   5.766  1.00  0.00    -0.258 OA
ATOM     13  O   UNL     1     -26.979   9.563   7.441  1.00  0.00    -0.258 OA
ENDBRANCH   4  11
TORSDOF 3
ENDMDL
MODEL 3
REMARK VINA RESULT:    -6.503      2.619      3.375
REMARK INTER + INTRA:          -7.540
REMARK INTER:                  -7.461
REMARK INTRA:                  -0.079
REMARK UNBOUND:                -0.087
REMARK SMILES O=[N+]([O-])c1ccc(O)c(CCl)c1
REMARK SMILES IDX 7 1 6 2 5 3 4 4 12 5 9 6 8 7 10 9 11 10 2 11 1 12 3 13
REMARK H PARENT 8 8
ROOT
ATOM      1  C   UNL     1     -30.263  10.830   6.679  1.00  0.00    +0.120 A 
ATOM      2  C   UNL     1     -29.777  12.040   6.180  1.00  0.00    +0.053 A 
ATOM      3  C   UNL     1     -28.473  12.123   5.695  1.00  0.00    +0.089 A 
ATOM      4  C   UNL     1     -27.660  10.983   5.724  1.00  0.00    +0.270 A 
ATOM      5  C   UNL     1     -28.145   9.770   6.240  1.00  0.00    +0.094 A 
ATOM      6  C   UNL     1     -29.460   9.682   6.733  1.00  0.00    +0.015 A 
ENDROOT
BRANCH   1   7
ATOM      7  O   UNL     1     -31.559  10.833   7.110  1.00  0.00    -0.508 OA
ATOM      8  H   UNL     1     -31.576  10.582   8.051  1.00  0.00    +0.293 HD
ENDBRANCH   1   7
BRANCH   6   9
ATOM      9  C   UNL     1     -29.940   8.392   7.340  1.00  0.00    +0.149 C 
ATOM     10 Cl   UNL     1     -28.596   7.504   8.091  1.00  0.00    -0.121 Cl
ENDBRANCH   6   9
BRANCH   4  11
ATOM     11  N   UNL     1     -26.284  11.061   5.216  1.00  0.00    +0.062 N 
ATOM     12  O   UNL     1     -26.090  11.711   4.179  1.00  0.00    -0.258 OA
ATOM     13  O   UNL     1     -25.399  10.471   5.852  1.00  0.00    -0.258 OA
ENDBRANCH   4  11
TORSDOF 3
ENDMDL
MODEL 4
REMARK VINA RESULT:    -6.352      2.216      2.971
REMARK INTER + INTRA:          -7.367
REMARK INTER:                  -7.285
REMARK INTRA:                  -0.082
REMARK UNBOUND:                -0.087
REMARK SMILES O=[N+]([O-])c1ccc(O)c(CCl)c1
REMARK SMILES IDX 7 1 6 2 5 3 4 4 12 5 9 6 8 7 10 9 11 10 2 11 1 12 3 13
REMARK H PARENT 8 8
ROOT
ATOM      1  C   UNL     1     -29.794   9.464   7.035  1.00  0.00    +0.120 A 
ATOM      2  C   UNL     1     -29.148   8.271   7.360  1.00  0.00    +0.053 A 
ATOM      3  C   UNL     1     -27.760   8.182   7.276  1.00  0.00    +0.089 A 
ATOM      4  C   UNL     1     -27.028   9.299   6.856  1.00  0.00    +0.270 A 
ATOM      5  C   UNL     1     -27.681  10.495   6.513  1.00  0.00    +0.094 A 
ATOM      6  C   UNL     1     -29.082  10.589   6.594  1.00  0.00    +0.015 A 
ENDROOT
BRANCH   1   7
ATOM      7  O   UNL     1     -31.153   9.471   7.169  1.00  0.00    -0.508 OA
ATOM      8  H   UNL     1     -31.498  10.314   6.824  1.00  0.00    +0.293 HD
ENDBRANCH   1   7
BRANCH   6   9
ATOM      9  C   UNL     1     -29.767  11.857   6.163  1.00  0.00    +0.149 C 
ATOM     10 Cl   UNL     1     -28.624  12.955   5.359  1.00  0.00    -0.121 Cl
ENDBRANCH   6   9
BRANCH   4  11
ATOM     11  N   UNL     1     -25.565   9.215   6.763  1.00  0.00    +0.062 N 
ATOM     12  O   UNL     1     -24.999   9.948   5.938  1.00  0.00    -0.258 OA
ATOM     13  O   UNL     1     -24.982   8.419   7.511  1.00  0.00    -0.258 OA
ENDBRANCH   4  11
TORSDOF 3
ENDMDL
MODEL 5
REMARK VINA RESULT:    -6.280      1.900      2.354
REMARK INTER + INTRA:          -7.285
REMARK INTER:                  -7.205
REMARK INTRA:                  -0.079
REMARK UNBOUND:                -0.087
REMARK SMILES O=[N+]([O-])c1ccc(O)c(CCl)c1
REMARK SMILES IDX 7 1 6 2 5 3 4 4 12 5 9 6 8 7 10 9 11 10 2 11 1 12 3 13
REMARK H PARENT 8 8
ROOT
ATOM      1  C   UNL     1     -26.715  10.428   5.423  1.00  0.00    +0.120 A 
ATOM      2  C   UNL     1     -26.068   9.226   5.715  1.00  0.00    +0.053 A 
ATOM      3  C   UNL     1     -26.678   8.288   6.546  1.00  0.00    +0.089 A 
ATOM      4  C   UNL     1     -27.939   8.570   7.085  1.00  0.00    +0.270 A 
ATOM      5  C   UNL     1     -28.583   9.786   6.802  1.00  0.00    +0.094 A 
ATOM      6  C   UNL     1     -27.970  10.738   5.967  1.00  0.00    +0.015 A 
ENDROOT
BRANCH   1   7
ATOM      7  O   UNL     1     -26.057  11.278   4.582  1.00  0.00    -0.508 OA
ATOM      8  H   UNL     1     -25.312  10.800   4.173  1.00  0.00    +0.293 HD
ENDBRANCH   1   7
BRANCH   6   9
ATOM      9  C   UNL     1     -28.647  12.060   5.728  1.00  0.00    +0.149 C 
ATOM     10 Cl   UNL     1     -30.340  12.014   6.265  1.00  0.00    -0.121 Cl
ENDBRANCH   6   9
BRANCH   4  11
ATOM     11  N   UNL     1     -28.590   7.588   7.961  1.00  0.00    +0.062 N 
ATOM     12  O   UNL     1     -27.864   6.913   8.706  1.00  0.00    -0.258 OA
ATOM     13  O   UNL     1     -29.823   7.489   7.905  1.00  0.00    -0.258 OA
ENDBRANCH   4  11
TORSDOF 3
ENDMDL
MODEL 6
REMARK VINA RESULT:    -5.906      9.847     11.224
REMARK INTER + INTRA:          -6.856
REMARK INTER:                  -6.736
REMARK INTRA:                  -0.121
REMARK UNBOUND:                -0.087
REMARK SMILES O=[N+]([O-])c1ccc(O)c(CCl)c1
REMARK SMILES IDX 7 1 6 2 5 3 4 4 12 5 9 6 8 7 10 9 11 10 2 11 1 12 3 13
REMARK H PARENT 8 8
ROOT
ATOM      1  C   UNL     1     -35.472   3.741   7.789  1.00  0.00    +0.120 A 
ATOM      2  C   UNL     1     -36.620   3.277   8.432  1.00  0.00    +0.053 A 
ATOM      3  C   UNL     1     -37.381   4.143   9.216  1.00  0.00    +0.089 A 
ATOM      4  C   UNL     1     -36.974   5.476   9.352  1.00  0.00    +0.270 A 
ATOM      5  C   UNL     1     -35.810   5.938   8.716  1.00  0.00    +0.094 A 
ATOM      6  C   UNL     1     -35.038   5.067   7.926  1.00  0.00    +0.015 A 
ENDROOT
BRANCH   1   7
ATOM      7  O   UNL     1     -34.802   2.832   7.022  1.00  0.00    -0.508 OA
ATOM      8  H   UNL     1     -34.109   2.414   7.565  1.00  0.00    +0.293 HD
ENDBRANCH   1   7
BRANCH   6   9
ATOM      9  C   UNL     1     -33.761   5.564   7.306  1.00  0.00    +0.149 C 
ATOM     10 Cl   UNL     1     -33.976   5.872   5.569  1.00  0.00    -0.121 Cl
ENDBRANCH   6   9
BRANCH   4  11
ATOM     11  N   UNL     1     -37.768   6.397  10.176  1.00  0.00    +0.062 N 
ATOM     12  O   UNL     1     -37.162   7.098  10.999  1.00  0.00    -0.258 OA
ATOM     13  O   UNL     1     -38.994   6.418  10.003  1.00  0.00    -0.258 OA
ENDBRANCH   4  11
TORSDOF 3
ENDMDL
MODEL 7
REMARK VINA RESULT:    -5.860      1.949      2.311
REMARK INTER + INTRA:          -6.803
REMARK INTER:                  -6.723
REMARK INTRA:                  -0.080
REMARK UNBOUND:                -0.087
REMARK SMILES O=[N+]([O-])c1ccc(O)c(CCl)c1
REMARK SMILES IDX 7 1 6 2 5 3 4 4 12 5 9 6 8 7 10 9 11 10 2 11 1 12 3 13
REMARK H PARENT 8 8
ROOT
ATOM      1  C   UNL     1     -29.323  10.588   6.563  1.00  0.00    +0.120 A 
ATOM      2  C   UNL     1     -27.928  10.617   6.575  1.00  0.00    +0.053 A 
ATOM      3  C   UNL     1     -27.209   9.489   6.966  1.00  0.00    +0.089 A 
ATOM      4  C   UNL     1     -27.902   8.336   7.351  1.00  0.00    +0.270 A 
ATOM      5  C   UNL     1     -29.307   8.313   7.354  1.00  0.00    +0.094 A 
ATOM      6  C   UNL     1     -30.038   9.449   6.963  1.00  0.00    +0.015 A 
ENDROOT
BRANCH   1   7
ATOM      7  O   UNL     1     -29.947  11.728   6.144  1.00  0.00    -0.508 OA
ATOM      8  H   UNL     1     -30.749  11.861   6.680  1.00  0.00    +0.293 HD
ENDBRANCH   1   7
BRANCH   6   9
ATOM      9  C   UNL     1     -31.541   9.425   7.033  1.00  0.00    +0.149 C 
ATOM     10 Cl   UNL     1     -32.137  10.545   8.277  1.00  0.00    -0.121 Cl
ENDBRANCH   6   9
BRANCH   4  11
ATOM     11  N   UNL     1     -27.154   7.143   7.766  1.00  0.00    +0.062 N 
ATOM     12  O   UNL     1     -26.156   6.831   7.099  1.00  0.00    -0.258 OA
ATOM     13  O   UNL     1     -27.562   6.517   8.754  1.00  0.00    -0.258 OA
ENDBRANCH   4  11
TORSDOF 3
ENDMDL
MODEL 8
REMARK VINA RESULT:    -5.469      8.287     10.124
REMARK INTER + INTRA:          -6.355
REMARK INTER:                  -6.258
REMARK INTRA:                  -0.097
REMARK UNBOUND:                -0.087
REMARK SMILES O=[N+]([O-])c1ccc(O)c(CCl)c1
REMARK SMILES IDX 7 1 6 2 5 3 4 4 12 5 9 6 8 7 10 9 11 10 2 11 1 12 3 13
REMARK H PARENT 8 8
ROOT
ATOM      1  C   UNL     1     -25.478   1.778  11.398  1.00  0.00    +0.120 A 
ATOM      2  C   UNL     1     -26.774   2.263  11.212  1.00  0.00    +0.053 A 
ATOM      3  C   UNL     1     -26.991   3.393  10.426  1.00  0.00    +0.089 A 
ATOM      4  C   UNL     1     -25.896   4.034   9.835  1.00  0.00    +0.270 A 
ATOM      5  C   UNL     1     -24.591   3.554  10.035  1.00  0.00    +0.094 A 
ATOM      6  C   UNL     1     -24.366   2.416  10.830  1.00  0.00    +0.015 A 
ENDROOT
BRANCH   1   7
ATOM      7  O   UNL     1     -25.360   0.652  12.162  1.00  0.00    -0.508 OA
ATOM      8  H   UNL     1     -24.457   0.616  12.527  1.00  0.00    +0.293 HD
ENDBRANCH   1   7
BRANCH   6   9
ATOM      9  C   UNL     1     -22.957   1.955  11.084  1.00  0.00    +0.149 C 
ATOM     10 Cl   UNL     1     -22.261   1.205   9.631  1.00  0.00    -0.121 Cl
ENDBRANCH   6   9
BRANCH   4  11
ATOM     11  N   UNL     1     -26.114   5.226   9.005  1.00  0.00    +0.062 N 
ATOM     12  O   UNL     1     -25.117   5.775   8.515  1.00  0.00    -0.258 OA
ATOM     13  O   UNL     1     -27.280   5.614   8.845  1.00  0.00    -0.258 OA
ENDBRANCH   4  11
TORSDOF 3
ENDMDL
MODEL 9
REMARK VINA RESULT:    -5.440      6.246      7.289
REMARK INTER + INTRA:          -6.322
REMARK INTER:                  -6.245
REMARK INTRA:                  -0.077
REMARK UNBOUND:                -0.087
REMARK SMILES O=[N+]([O-])c1ccc(O)c(CCl)c1
REMARK SMILES IDX 7 1 6 2 5 3 4 4 12 5 9 6 8 7 10 9 11 10 2 11 1 12 3 13
REMARK H PARENT 8 8
ROOT
ATOM      1  C   UNL     1     -33.543   5.925   5.475  1.00  0.00    +0.120 A 
ATOM      2  C   UNL     1     -32.795   6.867   4.768  1.00  0.00    +0.053 A 
ATOM      3  C   UNL     1     -32.206   7.938   5.439  1.00  0.00    +0.089 A 
ATOM      4  C   UNL     1     -32.381   8.057   6.823  1.00  0.00    +0.270 A 
ATOM      5  C   UNL     1     -33.147   7.116   7.531  1.00  0.00    +0.094 A 
ATOM      6  C   UNL     1     -33.746   6.035   6.858  1.00  0.00    +0.015 A 
ENDROOT
BRANCH   1   7
ATOM      7  O   UNL     1     -34.063   4.896   4.743  1.00  0.00    -0.508 OA
ATOM      8  H   UNL     1     -33.330   4.349   4.408  1.00  0.00    +0.293 HD
ENDBRANCH   1   7
BRANCH   6   9
ATOM      9  C   UNL     1     -34.615   5.075   7.623  1.00  0.00    +0.149 C 
ATOM     10 Cl   UNL     1     -35.863   5.942   8.545  1.00  0.00    -0.121 Cl
ENDBRANCH   6   9
BRANCH   4  11
ATOM     11  N   UNL     1     -31.765   9.181   7.539  1.00  0.00    +0.062 N 
ATOM     12  O   UNL     1     -32.515   9.939   8.171  1.00  0.00    -0.258 OA
ATOM     13  O   UNL     1     -30.535   9.308   7.468  1.00  0.00    -0.258 OA
ENDBRANCH   4  11
TORSDOF 3
ENDMDL
