MODEL 1
REMARK VINA RESULT:    -4.671      0.000      0.000
REMARK INTER + INTRA:          -6.314
REMARK INTER:                  -5.763
REMARK INTRA:                  -0.550
REMARK UNBOUND:                -0.550
REMARK SMILES O=S(=O)(O)CCS(=O)(=O)O
REMARK SMILES IDX 5 1 2 2 1 3 3 4 4 5 6 7 7 8 8 9 9 10 10 11
REMARK H PARENT 4 6 10 12
ROOT
ATOM      1  C   UNL     1     -25.272   1.223  10.984  1.00  0.00    +0.186 C 
ENDROOT
BRANCH   1   2
ATOM      2  S   UNL     1     -23.515   1.328  10.727  1.00  0.00    +0.265 S 
ATOM      3  O   UNL     1     -22.887   0.122  11.208  1.00  0.00    -0.200 OA
ATOM      4  O   UNL     1     -23.063   2.643  11.119  1.00  0.00    -0.200 OA
BRANCH   2   5
ATOM      5  O   UNL     1     -23.500   1.325   9.119  1.00  0.00    -0.286 OA
ATOM      6  H   UNL     1     -23.647   0.408   8.801  1.00  0.00    +0.234 HD
ENDBRANCH   2   5
ENDBRANCH   1   2
BRANCH   1   7
ATOM      7  C   UNL     1     -25.945   2.574  11.072  1.00  0.00    +0.186 C 
BRANCH   7   8
ATOM      8  S   UNL     1     -26.415   3.206   9.473  1.00  0.00    +0.265 S 
ATOM      9  O   UNL     1     -25.311   3.882   8.837  1.00  0.00    -0.200 OA
ATOM     10  O   UNL     1     -27.749   3.756   9.548  1.00  0.00    -0.200 OA
BRANCH   8  11
ATOM     11  O   UNL     1     -26.521   1.785   8.714  1.00  0.00    -0.286 OA
ATOM     12  H   UNL     1     -25.614   1.531   8.432  1.00  0.00    +0.234 HD
ENDBRANCH   8  11
ENDBRANCH   7   8
ENDBRANCH   1   7
TORSDOF 5
ENDMDL
MODEL 2
REMARK VINA RESULT:    -4.647      1.814      2.163
REMARK INTER + INTRA:          -6.284
REMARK INTER:                  -5.638
REMARK INTRA:                  -0.646
REMARK UNBOUND:                -0.550
REMARK SMILES O=S(=O)(O)CCS(=O)(=O)O
REMARK SMILES IDX 5 1 2 2 1 3 3 4 4 5 6 7 7 8 8 9 9 10 10 11
REMARK H PARENT 4 6 10 12
ROOT
ATOM      1  C   UNL     1     -24.283   1.407  11.070  1.00  0.00    +0.186 C 
ENDROOT
BRANCH   1   2
ATOM      2  S   UNL     1     -22.849   0.649  10.342  1.00  0.00    +0.265 S 
ATOM      3  O   UNL     1     -22.993  -0.785  10.379  1.00  0.00    -0.200 OA
ATOM      4  O   UNL     1     -21.666   1.319  10.833  1.00  0.00    -0.200 OA
BRANCH   2   5
ATOM      5  O   UNL     1     -23.041   1.160   8.830  1.00  0.00    -0.286 OA
ATOM      6  H   UNL     1     -23.329   2.099   8.844  1.00  0.00    +0.234 HD
ENDBRANCH   2   5
ENDBRANCH   1   2
BRANCH   1   7
ATOM      7  C   UNL     1     -25.486   0.493  11.112  1.00  0.00    +0.186 C 
BRANCH   7   8
ATOM      8  S   UNL     1     -26.377   0.469   9.569  1.00  0.00    +0.265 S 
ATOM      9  O   UNL     1     -26.048   1.618   8.762  1.00  0.00    -0.200 OA
ATOM     10  O   UNL     1     -27.731   0.023   9.803  1.00  0.00    -0.200 OA
BRANCH   8  11
ATOM     11  O   UNL     1     -25.576  -0.756   8.889  1.00  0.00    -0.286 OA
ATOM     12  H   UNL     1     -24.854  -1.016   9.503  1.00  0.00    +0.234 HD
ENDBRANCH   8  11
ENDBRANCH   7   8
ENDBRANCH   1   7
TORSDOF 5
ENDMDL
MODEL 3
REMARK VINA RESULT:    -4.638      0.413      4.000
REMARK INTER + INTRA:          -6.272
REMARK INTER:                  -5.620
REMARK INTRA:                  -0.653
REMARK UNBOUND:                -0.550
REMARK SMILES O=S(=O)(O)CCS(=O)(=O)O
REMARK SMILES IDX 5 1 2 2 1 3 3 4 4 5 6 7 7 8 8 9 9 10 10 11
REMARK H PARENT 4 6 10 12
ROOT
ATOM      1  C   UNL     1     -25.704   2.236  11.267  1.00  0.00    +0.186 C 
ENDROOT
BRANCH   1   2
ATOM      2  S   UNL     1     -26.304   2.799   9.690  1.00  0.00    +0.265 S 
ATOM      3  O   UNL     1     -27.455   3.645   9.889  1.00  0.00    -0.200 OA
ATOM      4  O   UNL     1     -26.313   1.686   8.770  1.00  0.00    -0.200 OA
BRANCH   2   5
ATOM      5  O   UNL     1     -25.049   3.708   9.260  1.00  0.00    -0.286 OA
ATOM      6  H   UNL     1     -24.751   4.229  10.037  1.00  0.00    +0.234 HD
ENDBRANCH   2   5
ENDBRANCH   1   2
BRANCH   1   7
ATOM      7  C   UNL     1     -24.971   0.916  11.192  1.00  0.00    +0.186 C 
BRANCH   7   8
ATOM      8  S   UNL     1     -23.246   1.117  10.790  1.00  0.00    +0.265 S 
ATOM      9  O   UNL     1     -22.493  -0.064  11.134  1.00  0.00    -0.200 OA
ATOM     10  O   UNL     1     -22.827   2.456  11.134  1.00  0.00    -0.200 OA
BRANCH   8  11
ATOM     11  O   UNL     1     -23.400   1.056   9.185  1.00  0.00    -0.286 OA
ATOM     12  H   UNL     1     -22.849   0.309   8.862  1.00  0.00    +0.234 HD
ENDBRANCH   8  11
ENDBRANCH   7   8
ENDBRANCH   1   7
TORSDOF 5
ENDMDL
MODEL 4
REMARK VINA RESULT:    -4.445      1.522      3.919
REMARK INTER + INTRA:          -6.035
REMARK INTER:                  -5.688
REMARK INTRA:                  -0.347
REMARK UNBOUND:                -0.550
REMARK SMILES O=S(=O)(O)CCS(=O)(=O)O
REMARK SMILES IDX 5 1 2 2 1 3 3 4 4 5 6 7 7 8 8 9 9 10 10 11
REMARK H PARENT 4 6 10 12
ROOT
ATOM      1  C   UNL     1     -24.204   3.102  10.921  1.00  0.00    +0.186 C 
ENDROOT
BRANCH   1   2
ATOM      2  S   UNL     1     -25.516   3.976  10.098  1.00  0.00    +0.265 S 
ATOM      3  O   UNL     1     -26.348   3.035   9.390  1.00  0.00    -0.200 OA
ATOM      4  O   UNL     1     -24.968   5.152   9.463  1.00  0.00    -0.200 OA
BRANCH   2   5
ATOM      5  O   UNL     1     -26.307   4.509  11.392  1.00  0.00    -0.286 OA
ATOM      6  H   UNL     1     -25.709   5.085  11.917  1.00  0.00    +0.234 HD
ENDBRANCH   2   5
ENDBRANCH   1   2
BRANCH   1   7
ATOM      7  C   UNL     1     -24.505   1.637  11.137  1.00  0.00    +0.186 C 
BRANCH   7   8
ATOM      8  S   UNL     1     -23.789   0.601   9.875  1.00  0.00    +0.265 S 
ATOM      9  O   UNL     1     -23.596  -0.744  10.357  1.00  0.00    -0.200 OA
ATOM     10  O   UNL     1     -22.776   1.345   9.162  1.00  0.00    -0.200 OA
BRANCH   8  11
ATOM     11  O   UNL     1     -25.087   0.515   8.920  1.00  0.00    -0.286 OA
ATOM     12  H   UNL     1     -25.162   1.371   8.442  1.00  0.00    +0.234 HD
ENDBRANCH   8  11
ENDBRANCH   7   8
ENDBRANCH   1   7
TORSDOF 5
ENDMDL
MODEL 5
REMARK VINA RESULT:    -4.357      1.571      2.248
REMARK INTER + INTRA:          -5.926
REMARK INTER:                  -5.753
REMARK INTRA:                  -0.174
REMARK UNBOUND:                -0.550
REMARK SMILES O=S(=O)(O)CCS(=O)(=O)O
REMARK SMILES IDX 5 1 2 2 1 3 3 4 4 5 6 7 7 8 8 9 9 10 10 11
REMARK H PARENT 4 6 10 12
ROOT
ATOM      1  C   UNL     1     -24.811   1.478  11.256  1.00  0.00    +0.186 C 
ENDROOT
BRANCH   1   2
ATOM      2  S   UNL     1     -24.083   0.613   9.883  1.00  0.00    +0.265 S 
ATOM      3  O   UNL     1     -23.860  -0.764  10.247  1.00  0.00    -0.200 OA
ATOM      4  O   UNL     1     -23.046   1.439   9.307  1.00  0.00    -0.200 OA
BRANCH   2   5
ATOM      5  O   UNL     1     -25.320   0.693   8.858  1.00  0.00    -0.286 OA
ATOM      6  H   UNL     1     -26.106   0.275   9.273  1.00  0.00    +0.234 HD
ENDBRANCH   2   5
ENDBRANCH   1   2
BRANCH   1   7
ATOM      7  C   UNL     1     -26.098   2.188  10.901  1.00  0.00    +0.186 C 
BRANCH   7   8
ATOM      8  S   UNL     1     -25.873   3.945  10.697  1.00  0.00    +0.265 S 
ATOM      9  O   UNL     1     -26.918   4.510   9.881  1.00  0.00    -0.200 OA
ATOM     10  O   UNL     1     -24.470   4.229  10.503  1.00  0.00    -0.200 OA
BRANCH   8  11
ATOM     11  O   UNL     1     -26.249   4.376  12.206  1.00  0.00    -0.286 OA
ATOM     12  H   UNL     1     -25.414   4.628  12.660  1.00  0.00    +0.234 HD
ENDBRANCH   8  11
ENDBRANCH   7   8
ENDBRANCH   1   7
TORSDOF 5
ENDMDL
MODEL 6
REMARK VINA RESULT:    -4.337     10.032     12.694
REMARK INTER + INTRA:          -5.901
REMARK INTER:                  -5.553
REMARK INTRA:                  -0.348
REMARK UNBOUND:                -0.550
REMARK SMILES O=S(=O)(O)CCS(=O)(=O)O
REMARK SMILES IDX 5 1 2 2 1 3 3 4 4 5 6 7 7 8 8 9 9 10 10 11
REMARK H PARENT 4 6 10 12
ROOT
ATOM      1  C   UNL     1     -37.134   4.209   9.578  1.00  0.00    +0.186 C 
ENDROOT
BRANCH   1   2
ATOM      2  S   UNL     1     -38.439   5.388   9.842  1.00  0.00    +0.265 S 
ATOM      3  O   UNL     1     -38.304   6.472   8.900  1.00  0.00    -0.200 OA
ATOM      4  O   UNL     1     -38.586   5.612  11.262  1.00  0.00    -0.200 OA
BRANCH   2   5
ATOM      5  O   UNL     1     -39.689   4.472   9.415  1.00  0.00    -0.286 OA
ATOM      6  H   UNL     1     -39.482   3.534   9.617  1.00  0.00    +0.234 HD
ENDBRANCH   2   5
ENDBRANCH   1   2
BRANCH   1   7
ATOM      7  C   UNL     1     -35.770   4.727   9.973  1.00  0.00    +0.186 C 
BRANCH   7   8
ATOM      8  S   UNL     1     -34.782   5.188   8.564  1.00  0.00    +0.265 S 
ATOM      9  O   UNL     1     -35.199   4.472   7.383  1.00  0.00    -0.200 OA
ATOM     10  O   UNL     1     -33.401   5.320   8.968  1.00  0.00    -0.200 OA
BRANCH   8  11
ATOM     11  O   UNL     1     -35.375   6.677   8.375  1.00  0.00    -0.286 OA
ATOM     12  H   UNL     1     -36.029   6.829   9.093  1.00  0.00    +0.234 HD
ENDBRANCH   8  11
ENDBRANCH   7   8
ENDBRANCH   1   7
TORSDOF 5
ENDMDL
MODEL 7
REMARK VINA RESULT:    -4.255      0.753      4.126
REMARK INTER + INTRA:          -5.800
REMARK INTER:                  -5.649
REMARK INTRA:                  -0.150
REMARK UNBOUND:                -0.550
REMARK SMILES O=S(=O)(O)CCS(=O)(=O)O
REMARK SMILES IDX 5 1 2 2 1 3 3 4 4 5 6 7 7 8 8 9 9 10 10 11
REMARK H PARENT 4 6 10 12
ROOT
ATOM      1  C   UNL     1     -25.563   1.761  10.766  1.00  0.00    +0.186 C 
ENDROOT
BRANCH   1   2
ATOM      2  S   UNL     1     -26.302   2.895   9.612  1.00  0.00    +0.265 S 
ATOM      3  O   UNL     1     -25.272   3.706   9.010  1.00  0.00    -0.200 OA
ATOM      4  O   UNL     1     -27.484   3.468  10.213  1.00  0.00    -0.200 OA
BRANCH   2   5
ATOM      5  O   UNL     1     -26.836   1.832   8.530  1.00  0.00    -0.286 OA
ATOM      6  H   UNL     1     -26.958   0.963   8.970  1.00  0.00    +0.234 HD
ENDBRANCH   2   5
ENDBRANCH   1   2
BRANCH   1   7
ATOM      7  C   UNL     1     -24.562   0.825  10.127  1.00  0.00    +0.186 C 
BRANCH   7   8
ATOM      8  S   UNL     1     -22.877   1.318  10.432  1.00  0.00    +0.265 S 
ATOM      9  O   UNL     1     -22.825   2.568  11.149  1.00  0.00    -0.200 OA
ATOM     10  O   UNL     1     -22.076   1.038   9.263  1.00  0.00    -0.200 OA
BRANCH   8  11
ATOM     11  O   UNL     1     -22.531   0.194  11.537  1.00  0.00    -0.286 OA
ATOM     12  H   UNL     1     -21.641  -0.166  11.326  1.00  0.00    +0.234 HD
ENDBRANCH   8  11
ENDBRANCH   7   8
ENDBRANCH   1   7
TORSDOF 5
ENDMDL
MODEL 8
REMARK VINA RESULT:    -4.204      1.290      2.398
REMARK INTER + INTRA:          -5.737
REMARK INTER:                  -5.307
REMARK INTRA:                  -0.430
REMARK UNBOUND:                -0.550
REMARK SMILES O=S(=O)(O)CCS(=O)(=O)O
REMARK SMILES IDX 5 1 2 2 1 3 3 4 4 5 6 7 7 8 8 9 9 10 10 11
REMARK H PARENT 4 6 10 12
ROOT
ATOM      1  C   UNL     1     -24.527   0.690  10.638  1.00  0.00    +0.186 C 
ENDROOT
BRANCH   1   2
ATOM      2  S   UNL     1     -22.776   0.752  10.334  1.00  0.00    +0.265 S 
ATOM      3  O   UNL     1     -22.536   1.288   9.017  1.00  0.00    -0.200 OA
ATOM      4  O   UNL     1     -22.179  -0.483  10.787  1.00  0.00    -0.200 OA
BRANCH   2   5
ATOM      5  O   UNL     1     -22.375   1.856  11.433  1.00  0.00    -0.286 OA
ATOM      6  H   UNL     1     -23.157   2.045  11.995  1.00  0.00    +0.234 HD
ENDBRANCH   2   5
ENDBRANCH   1   2
BRANCH   1   7
ATOM      7  C   UNL     1     -25.026   1.830  11.496  1.00  0.00    +0.186 C 
BRANCH   7   8
ATOM      8  S   UNL     1     -25.498   3.253  10.531  1.00  0.00    +0.265 S 
ATOM      9  O   UNL     1     -26.541   4.001  11.188  1.00  0.00    -0.200 OA
ATOM     10  O   UNL     1     -25.537   2.892   9.132  1.00  0.00    -0.200 OA
BRANCH   8  11
ATOM     11  O   UNL     1     -24.156   4.117  10.770  1.00  0.00    -0.286 OA
ATOM     12  H   UNL     1     -23.744   4.275   9.892  1.00  0.00    +0.234 HD
ENDBRANCH   8  11
ENDBRANCH   7   8
ENDBRANCH   1   7
TORSDOF 5
ENDMDL
MODEL 9
REMARK VINA RESULT:    -4.181     10.121     12.171
REMARK INTER + INTRA:          -5.709
REMARK INTER:                  -5.383
REMARK INTRA:                  -0.326
REMARK UNBOUND:                -0.550
REMARK SMILES O=S(=O)(O)CCS(=O)(=O)O
REMARK SMILES IDX 5 1 2 2 1 3 3 4 4 5 6 7 7 8 8 9 9 10 10 11
REMARK H PARENT 4 6 10 12
ROOT
ATOM      1  C   UNL     1     -36.367   3.759  10.363  1.00  0.00    +0.186 C 
ENDROOT
BRANCH   1   2
ATOM      2  S   UNL     1     -34.817   4.591  10.626  1.00  0.00    +0.265 S 
ATOM      3  O   UNL     1     -34.339   5.122   9.373  1.00  0.00    -0.200 OA
ATOM      4  O   UNL     1     -33.990   3.778  11.487  1.00  0.00    -0.200 OA
BRANCH   2   5
ATOM      5  O   UNL     1     -35.342   5.802  11.545  1.00  0.00    -0.286 OA
ATOM      6  H   UNL     1     -35.128   6.653  11.105  1.00  0.00    +0.234 HD
ENDBRANCH   2   5
ENDBRANCH   1   2
BRANCH   1   7
ATOM      7  C   UNL     1     -37.174   4.344   9.226  1.00  0.00    +0.186 C 
BRANCH   7   8
ATOM      8  S   UNL     1     -38.442   5.460   9.796  1.00  0.00    +0.265 S 
ATOM      9  O   UNL     1     -38.581   6.584   8.903  1.00  0.00    -0.200 OA
ATOM     10  O   UNL     1     -38.356   5.590  11.232  1.00  0.00    -0.200 OA
BRANCH   8  11
ATOM     11  O   UNL     1     -39.709   4.516   9.470  1.00  0.00    -0.286 OA
ATOM     12  H   UNL     1     -40.174   4.900   8.694  1.00  0.00    +0.234 HD
ENDBRANCH   8  11
ENDBRANCH   7   8
ENDBRANCH   1   7
TORSDOF 5
ENDMDL
