REMARK SMILES CC(C)[C@@](C)(O)CC(C)(C)C
REMARK SMILES IDX 4 1 5 2 2 3 1 4 3 5 6 6 7 8 8 9 9 10 10 11 11 12
REMARK H PARENT 6 7
ROOT
ATOM      1  C   UNL     1       0.785   0.529   0.443  1.00  0.00    +0.065 C 
ATOM      2  C   UNL     1       0.453   0.662   1.933  1.00  0.00    +0.042 C 
ENDROOT
BRANCH   1   3
ATOM      3  C   UNL     1       2.256   0.005   0.271  1.00  0.00    +0.014 C 
ATOM      4  C   UNL     1       2.723  -0.023  -1.192  1.00  0.00    +0.010 C 
ATOM      5  C   UNL     1       2.514  -1.365   0.909  1.00  0.00    +0.010 C 
ENDBRANCH   1   3
BRANCH   1   6
ATOM      6  O   UNL     1       0.752   1.853  -0.112  1.00  0.00    -0.390 OA
ATOM      7  H   UNL     1       1.381   2.405   0.385  1.00  0.00    +0.211 HD
ENDBRANCH   1   6
BRANCH   1   8
ATOM      8  C   UNL     1      -0.240  -0.338  -0.342  1.00  0.00    +0.041 C 
BRANCH   8   9
ATOM      9  C   UNL     1      -1.776  -0.044  -0.290  1.00  0.00    -0.036 C 
ATOM     10  C   UNL     1      -2.116   1.437  -0.504  1.00  0.00    +0.011 C 
ATOM     11  C   UNL     1      -2.432  -0.850  -1.438  1.00  0.00    +0.011 C 
ATOM     12  C   UNL     1      -2.415  -0.536   1.022  1.00  0.00    +0.011 C 
ENDBRANCH   8   9
ENDBRANCH   1   8
TORSDOF 4
