REMARK SMILES Cc1nn(-c2ccccc2)c(N)c1C#N
REMARK SMILES IDX 1 1 2 2 3 3 4 4 11 5 13 6 14 7 15 8 5 9 6 10 10 11 7 12 9 13
REMARK SMILES IDX 8 14 12 15
REMARK H PARENT 12 16 12 17
ROOT
ATOM      1  C   UNL     1      -3.358   1.718  -0.472  1.00  0.00    +0.070 C 
ATOM      2  C   UNL     1      -2.257   0.753  -0.223  1.00  0.00    +0.080 A 
ATOM      3  N   UNL     1      -1.011   1.046  -0.603  1.00  0.00    -0.170 NA
ATOM      4  N   UNL     1      -0.246   0.007  -0.157  1.00  0.00    -0.216 N 
ATOM      5  C   UNL     1      -1.054  -1.038   0.323  1.00  0.00    +0.145 A 
ATOM      6  C   UNL     1      -2.335  -0.525   0.361  1.00  0.00    +0.117 A 
ATOM      7  C   UNL     1      -3.505  -1.187   0.832  1.00  0.00    +0.105 C 
ATOM      8  N   UNL     1      -4.462  -1.728   1.204  1.00  0.00    -0.192 NA
ENDROOT
BRANCH   4   9
ATOM      9  C   UNL     1       1.177   0.108  -0.224  1.00  0.00    +0.067 A 
ATOM     10  C   UNL     1       1.754   1.093  -1.043  1.00  0.00    +0.028 A 
ATOM     11  C   UNL     1       2.014  -0.720   0.535  1.00  0.00    +0.028 A 
ATOM     12  C   UNL     1       3.143   1.218  -1.130  1.00  0.00    +0.002 A 
ATOM     13  C   UNL     1       3.404  -0.589   0.446  1.00  0.00    +0.002 A 
ATOM     14  C   UNL     1       3.966   0.373  -0.391  1.00  0.00    +0.000 A 
ENDBRANCH   4   9
BRANCH   5  15
ATOM     15  N   UNL     1      -0.611  -2.292   0.634  1.00  0.00    -0.382 N 
ATOM     16  H   UNL     1      -1.297  -3.033   0.787  1.00  0.00    +0.158 HD
ATOM     17  H   UNL     1       0.199  -2.661   0.134  1.00  0.00    +0.158 HD
ENDBRANCH   5  15
TORSDOF 2
