REMARK SMILES Nc1ccc(Cc2ccc(N)c(Br)c2)cc1Br
REMARK SMILES IDX 6 1 5 2 2 3 16 4 3 5 15 6 4 7 17 8 1 9 7 12 14 13 8 14 12 15
REMARK SMILES IDX 9 16 10 17 13 18 11 19
REMARK H PARENT 1 10 1 11 11 20 11 21
ROOT
ATOM      1  C   UNL     1       0.252  -0.655  -1.655  1.00  0.00    +0.071 C 
ENDROOT
BRANCH   1   2
ATOM      2  C   UNL     1      -1.106  -0.252  -1.127  1.00  0.00    -0.042 A 
ATOM      3  C   UNL     1      -3.626   0.532  -0.099  1.00  0.00    +0.046 A 
ATOM      4  C   UNL     1      -3.029  -0.676   0.296  1.00  0.00    +0.041 A 
ATOM      5  C   UNL     1      -2.974   1.302  -1.068  1.00  0.00    +0.027 A 
ATOM      6  C   UNL     1      -1.776  -1.056  -0.195  1.00  0.00    +0.022 A 
ATOM      7  C   UNL     1      -1.721   0.928  -1.563  1.00  0.00    +0.006 A 
ATOM      8 Br   UNL     1      -3.887  -1.827   1.542  1.00  0.00    -0.049 Br
BRANCH   3   9
ATOM      9  N   UNL     1      -4.935   0.881   0.280  1.00  0.00    -0.398 N 
ATOM     10  H   UNL     1      -5.116   1.879   0.270  1.00  0.00    +0.156 HD
ATOM     11  H   UNL     1      -5.218   0.439   1.153  1.00  0.00    +0.156 HD
ENDBRANCH   3   9
ENDBRANCH   1   2
BRANCH   1  12
ATOM     12  C   UNL     1       1.364  -0.509  -0.643  1.00  0.00    -0.042 A 
ATOM     13  C   UNL     1       1.827   0.760  -0.271  1.00  0.00    +0.022 A 
ATOM     14  C   UNL     1       1.934  -1.636  -0.039  1.00  0.00    +0.006 A 
ATOM     15  C   UNL     1       2.849   0.892   0.676  1.00  0.00    +0.041 A 
ATOM     16  C   UNL     1       2.956  -1.498   0.906  1.00  0.00    +0.027 A 
ATOM     17  C   UNL     1       3.461  -0.238   1.243  1.00  0.00    +0.046 A 
ATOM     18 Br   UNL     1       3.409   2.647   1.146  1.00  0.00    -0.049 Br
BRANCH  17  19
ATOM     19  N   UNL     1       4.402  -0.137   2.282  1.00  0.00    -0.398 N 
ATOM     20  H   UNL     1       5.028  -0.931   2.356  1.00  0.00    +0.156 HD
ATOM     21  H   UNL     1       4.892   0.755   2.284  1.00  0.00    +0.156 HD
ENDBRANCH  17  19
ENDBRANCH   1  12
TORSDOF 4
