REMARK SMILES Cc1ccccc1N(C)C
REMARK SMILES IDX 7 1 2 2 1 3 3 4 4 5 5 6 6 7 8 8 9 9 10 10
REMARK H PARENT
ROOT
ATOM      1  C   UNL     1       0.014  -0.113  -0.154  1.00  0.00    +0.039 A 
ATOM      2  C   UNL     1       0.898   0.775   0.493  1.00  0.00    -0.028 A 
ATOM      3  C   UNL     1       0.373   1.942   1.285  1.00  0.00    +0.046 C 
ATOM      4  C   UNL     1       2.285   0.573   0.398  1.00  0.00    +0.005 A 
ATOM      5  C   UNL     1       2.799  -0.498  -0.332  1.00  0.00    +0.000 A 
ATOM      6  C   UNL     1       1.933  -1.379  -0.971  1.00  0.00    +0.002 A 
ATOM      7  C   UNL     1       0.553  -1.189  -0.880  1.00  0.00    +0.026 A 
ENDROOT
BRANCH   1   8
ATOM      8  N   UNL     1      -1.381   0.090  -0.035  1.00  0.00    -0.377 N 
ATOM      9  C   UNL     1      -1.971  -0.852   0.919  1.00  0.00    +0.143 C 
ATOM     10  C   UNL     1      -2.073   0.155  -1.323  1.00  0.00    +0.143 C 
ENDBRANCH   1   8
TORSDOF 1
