MODEL 1
REMARK VINA RESULT:    -4.266      0.000      0.000
REMARK INTER + INTRA:          -4.543
REMARK INTER:                  -4.515
REMARK INTRA:                  -0.028
REMARK UNBOUND:                -0.028
REMARK SMILES ClCc1ccco1
REMARK SMILES IDX 1 1 2 2 3 3 4 4 7 5 5 6 6 7
REMARK H PARENT
ROOT
ATOM      1 Cl   UNL     1     -30.320  11.887   7.973  1.00  0.00    -0.118 Cl
ATOM      2  C   UNL     1     -30.098  11.928   6.210  1.00  0.00    +0.184 C 
ENDROOT
BRANCH   2   3
ATOM      3  C   UNL     1     -28.666  11.801   5.856  1.00  0.00    +0.118 A 
ATOM      4  C   UNL     1     -27.764  12.629   5.220  1.00  0.00    +0.047 A 
ATOM      5  O   UNL     1     -28.059  10.625   6.189  1.00  0.00    -0.468 OA
ATOM      6  C   UNL     1     -26.537  11.925   5.172  1.00  0.00    +0.042 A 
ATOM      7  C   UNL     1     -26.768  10.711   5.775  1.00  0.00    +0.195 A 
ENDBRANCH   2   3
TORSDOF 1
ENDMDL
MODEL 2
REMARK VINA RESULT:    -4.240     15.344     15.693
REMARK INTER + INTRA:          -4.516
REMARK INTER:                  -4.480
REMARK INTRA:                  -0.036
REMARK UNBOUND:                -0.028
REMARK SMILES ClCc1ccco1
REMARK SMILES IDX 1 1 2 2 3 3 4 4 7 5 5 6 6 7
REMARK H PARENT
ROOT
ATOM      1 Cl   UNL     1     -32.902  -0.891  -2.534  1.00  0.00    -0.118 Cl
ATOM      2  C   UNL     1     -34.056  -1.923  -1.660  1.00  0.00    +0.184 C 
ENDROOT
BRANCH   2   3
ATOM      3  C   UNL     1     -33.870  -1.799  -0.197  1.00  0.00    +0.118 A 
ATOM      4  C   UNL     1     -34.392  -2.469   0.891  1.00  0.00    +0.047 A 
ATOM      5  O   UNL     1     -33.025  -0.815   0.228  1.00  0.00    -0.468 OA
ATOM      6  C   UNL     1     -33.827  -1.869   2.042  1.00  0.00    +0.042 A 
ATOM      7  C   UNL     1     -33.002  -0.868   1.585  1.00  0.00    +0.195 A 
ENDBRANCH   2   3
TORSDOF 1
ENDMDL
MODEL 3
REMARK VINA RESULT:    -4.148      3.257      4.312
REMARK INTER + INTRA:          -4.419
REMARK INTER:                  -4.389
REMARK INTRA:                  -0.030
REMARK UNBOUND:                -0.028
REMARK SMILES ClCc1ccco1
REMARK SMILES IDX 1 1 2 2 3 3 4 4 7 5 5 6 6 7
REMARK H PARENT
ROOT
ATOM      1 Cl   UNL     1     -25.490   6.926   7.373  1.00  0.00    -0.118 Cl
ATOM      2  C   UNL     1     -24.685   8.287   6.560  1.00  0.00    +0.184 C 
ENDROOT
BRANCH   2   3
ATOM      3  C   UNL     1     -25.668   9.324   6.174  1.00  0.00    +0.118 A 
ATOM      4  C   UNL     1     -27.044   9.343   6.073  1.00  0.00    +0.047 A 
ATOM      5  O   UNL     1     -25.161  10.538   5.810  1.00  0.00    -0.468 OA
ATOM      6  C   UNL     1     -27.397  10.643   5.635  1.00  0.00    +0.042 A 
ATOM      7  C   UNL     1     -26.216  11.331   5.490  1.00  0.00    +0.195 A 
ENDBRANCH   2   3
TORSDOF 1
ENDMDL
MODEL 4
REMARK VINA RESULT:    -3.841      6.114      7.085
REMARK INTER + INTRA:          -4.094
REMARK INTER:                  -4.067
REMARK INTRA:                  -0.027
REMARK UNBOUND:                -0.028
REMARK SMILES ClCc1ccco1
REMARK SMILES IDX 1 1 2 2 3 3 4 4 7 5 5 6 6 7
REMARK H PARENT
ROOT
ATOM      1 Cl   UNL     1     -26.566   3.103   9.189  1.00  0.00    -0.118 Cl
ATOM      2  C   UNL     1     -25.567   4.554   9.435  1.00  0.00    +0.184 C 
ENDROOT
BRANCH   2   3
ATOM      3  C   UNL     1     -25.947   5.621   8.483  1.00  0.00    +0.118 A 
ATOM      4  C   UNL     1     -25.339   6.167   7.370  1.00  0.00    +0.047 A 
ATOM      5  O   UNL     1     -27.135   6.251   8.716  1.00  0.00    -0.468 OA
ATOM      6  C   UNL     1     -26.208   7.177   6.892  1.00  0.00    +0.042 A 
ATOM      7  C   UNL     1     -27.287   7.188   7.745  1.00  0.00    +0.195 A 
ENDBRANCH   2   3
TORSDOF 1
ENDMDL
MODEL 5
REMARK VINA RESULT:    -3.804      4.281      5.374
REMARK INTER + INTRA:          -4.054
REMARK INTER:                  -4.019
REMARK INTRA:                  -0.035
REMARK UNBOUND:                -0.028
REMARK SMILES ClCc1ccco1
REMARK SMILES IDX 1 1 2 2 3 3 4 4 7 5 5 6 6 7
REMARK H PARENT
ROOT
ATOM      1 Cl   UNL     1     -26.702   5.400   8.526  1.00  0.00    -0.118 Cl
ATOM      2  C   UNL     1     -25.415   5.863   7.390  1.00  0.00    +0.184 C 
ENDROOT
BRANCH   2   3
ATOM      3  C   UNL     1     -25.495   7.304   7.063  1.00  0.00    +0.118 A 
ATOM      4  C   UNL     1     -24.591   8.220   6.564  1.00  0.00    +0.047 A 
ATOM      5  O   UNL     1     -26.690   7.917   7.303  1.00  0.00    -0.468 OA
ATOM      6  C   UNL     1     -25.275   9.457   6.486  1.00  0.00    +0.042 A 
ATOM      7  C   UNL     1     -26.548   9.220   6.946  1.00  0.00    +0.195 A 
ENDBRANCH   2   3
TORSDOF 1
ENDMDL
MODEL 6
REMARK VINA RESULT:    -3.613      9.963     10.957
REMARK INTER + INTRA:          -3.852
REMARK INTER:                  -3.825
REMARK INTRA:                  -0.027
REMARK UNBOUND:                -0.028
REMARK SMILES ClCc1ccco1
REMARK SMILES IDX 1 1 2 2 3 3 4 4 7 5 5 6 6 7
REMARK H PARENT
ROOT
ATOM      1 Cl   UNL     1     -22.075   1.461  10.514  1.00  0.00    -0.118 Cl
ATOM      2  C   UNL     1     -23.814   1.187  10.762  1.00  0.00    +0.184 C 
ENDROOT
BRANCH   2   3
ATOM      3  C   UNL     1     -24.595   2.388  10.387  1.00  0.00    +0.118 A 
ATOM      4  C   UNL     1     -24.656   3.677  10.877  1.00  0.00    +0.047 A 
ATOM      5  O   UNL     1     -25.474   2.244   9.353  1.00  0.00    -0.468 OA
ATOM      6  C   UNL     1     -25.617   4.359  10.092  1.00  0.00    +0.042 A 
ATOM      7  C   UNL     1     -26.084   3.444   9.179  1.00  0.00    +0.195 A 
ENDBRANCH   2   3
TORSDOF 1
ENDMDL
MODEL 7
REMARK VINA RESULT:    -3.570      9.613     10.622
REMARK INTER + INTRA:          -3.807
REMARK INTER:                  -3.770
REMARK INTRA:                  -0.036
REMARK UNBOUND:                -0.028
REMARK SMILES ClCc1ccco1
REMARK SMILES IDX 1 1 2 2 3 3 4 4 7 5 5 6 6 7
REMARK H PARENT
ROOT
ATOM      1 Cl   UNL     1     -26.346   4.574   8.765  1.00  0.00    -0.118 Cl
ATOM      2  C   UNL     1     -25.017   4.504   9.944  1.00  0.00    +0.184 C 
ENDROOT
BRANCH   2   3
ATOM      3  C   UNL     1     -24.589   3.106  10.173  1.00  0.00    +0.118 A 
ATOM      4  C   UNL     1     -23.649   2.519  10.995  1.00  0.00    +0.047 A 
ATOM      5  O   UNL     1     -25.210   2.149   9.423  1.00  0.00    -0.468 OA
ATOM      6  C   UNL     1     -23.706   1.127  10.742  1.00  0.00    +0.042 A 
ATOM      7  C   UNL     1     -24.672   0.954   9.779  1.00  0.00    +0.195 A 
ENDBRANCH   2   3
TORSDOF 1
ENDMDL
MODEL 8
REMARK VINA RESULT:    -3.505      9.209     10.213
REMARK INTER + INTRA:          -3.738
REMARK INTER:                  -3.712
REMARK INTRA:                  -0.026
REMARK UNBOUND:                -0.028
REMARK SMILES ClCc1ccco1
REMARK SMILES IDX 1 1 2 2 3 3 4 4 7 5 5 6 6 7
REMARK H PARENT
ROOT
ATOM      1 Cl   UNL     1     -38.733   5.318   9.152  1.00  0.00    -0.118 Cl
ATOM      2  C   UNL     1     -37.130   5.727   9.805  1.00  0.00    +0.184 C 
ENDROOT
BRANCH   2   3
ATOM      3  C   UNL     1     -36.084   5.566   8.770  1.00  0.00    +0.118 A 
ATOM      4  C   UNL     1     -35.375   4.483   8.291  1.00  0.00    +0.047 A 
ATOM      5  O   UNL     1     -35.679   6.702   8.132  1.00  0.00    -0.468 OA
ATOM      6  C   UNL     1     -34.498   4.983   7.300  1.00  0.00    +0.042 A 
ATOM      7  C   UNL     1     -34.722   6.339   7.240  1.00  0.00    +0.195 A 
ENDBRANCH   2   3
TORSDOF 1
ENDMDL
MODEL 9
REMARK VINA RESULT:    -3.455      9.599     10.325
REMARK INTER + INTRA:          -3.685
REMARK INTER:                  -3.656
REMARK INTRA:                  -0.028
REMARK UNBOUND:                -0.028
REMARK SMILES ClCc1ccco1
REMARK SMILES IDX 1 1 2 2 3 3 4 4 7 5 5 6 6 7
REMARK H PARENT
ROOT
ATOM      1 Cl   UNL     1     -20.594   6.912  -0.958  1.00  0.00    -0.118 Cl
ATOM      2  C   UNL     1     -20.159   7.770   0.537  1.00  0.00    +0.184 C 
ENDROOT
BRANCH   2   3
ATOM      3  C   UNL     1     -20.389   9.226   0.394  1.00  0.00    +0.118 A 
ATOM      4  C   UNL     1     -19.565  10.331   0.453  1.00  0.00    +0.047 A 
ATOM      5  O   UNL     1     -21.677   9.620   0.174  1.00  0.00    -0.468 OA
ATOM      6  C   UNL     1     -20.393  11.461   0.247  1.00  0.00    +0.042 A 
ATOM      7  C   UNL     1     -21.668  10.975   0.081  1.00  0.00    +0.195 A 
ENDBRANCH   2   3
TORSDOF 1
ENDMDL
