MODEL 1
REMARK VINA RESULT:    -5.679      0.000      0.000
REMARK INTER + INTRA:          -6.011
REMARK INTER:                  -6.011
REMARK INTRA:                   0.000
REMARK UNBOUND:                 0.000
REMARK SMILES Oc1cccc(O)c1
REMARK SMILES IDX 2 1 8 2 6 3 5 4 4 5 3 6 1 7 7 9
REMARK H PARENT 1 8 7 10
ROOT
ATOM      1  C   UNL     1     -28.186  12.806   5.264  1.00  0.00    +0.119 A 
ATOM      2  C   UNL     1     -26.968  12.148   5.125  1.00  0.00    +0.092 A 
ATOM      3  C   UNL     1     -26.819  10.887   5.698  1.00  0.00    +0.119 A 
ATOM      4  C   UNL     1     -27.863  10.290   6.399  1.00  0.00    +0.046 A 
ATOM      5  C   UNL     1     -29.078  10.960   6.531  1.00  0.00    +0.008 A 
ATOM      6  C   UNL     1     -29.241  12.223   5.962  1.00  0.00    +0.046 A 
ENDROOT
BRANCH   1   7
ATOM      7  O   UNL     1     -28.393  14.042   4.725  1.00  0.00    -0.508 OA
ATOM      8  H   UNL     1     -27.797  14.676   5.153  1.00  0.00    +0.293 HD
ENDBRANCH   1   7
BRANCH   3   9
ATOM      9  O   UNL     1     -25.649  10.191   5.597  1.00  0.00    -0.508 OA
ATOM     10  H   UNL     1     -25.205  10.440   4.770  1.00  0.00    +0.293 HD
ENDBRANCH   3   9
TORSDOF 2
ENDMDL
MODEL 2
REMARK VINA RESULT:    -5.678      0.106      2.946
REMARK INTER + INTRA:          -6.010
REMARK INTER:                  -6.010
REMARK INTRA:                   0.000
REMARK UNBOUND:                 0.000
REMARK SMILES Oc1cccc(O)c1
REMARK SMILES IDX 2 1 8 2 6 3 5 4 4 5 3 6 1 7 7 9
REMARK H PARENT 1 8 7 10
ROOT
ATOM      1  C   UNL     1     -26.738  10.969   5.649  1.00  0.00    +0.119 A 
ATOM      2  C   UNL     1     -26.933  12.232   5.099  1.00  0.00    +0.092 A 
ATOM      3  C   UNL     1     -28.178  12.840   5.244  1.00  0.00    +0.119 A 
ATOM      4  C   UNL     1     -29.213  12.202   5.922  1.00  0.00    +0.046 A 
ATOM      5  C   UNL     1     -29.004  10.936   6.468  1.00  0.00    +0.008 A 
ATOM      6  C   UNL     1     -27.762  10.317   6.331  1.00  0.00    +0.046 A 
ENDROOT
BRANCH   1   7
ATOM      7  O   UNL     1     -25.541  10.322   5.541  1.00  0.00    -0.508 OA
ATOM      8  H   UNL     1     -25.593   9.684   4.812  1.00  0.00    +0.293 HD
ENDBRANCH   1   7
BRANCH   3   9
ATOM      9  O   UNL     1     -28.432  14.077   4.727  1.00  0.00    -0.508 OA
ATOM     10  H   UNL     1     -28.940  14.591   5.376  1.00  0.00    +0.293 HD
ENDBRANCH   3   9
TORSDOF 2
ENDMDL
MODEL 3
REMARK VINA RESULT:    -5.264      1.602      2.602
REMARK INTER + INTRA:          -5.572
REMARK INTER:                  -5.572
REMARK INTRA:                   0.000
REMARK UNBOUND:                 0.000
REMARK SMILES Oc1cccc(O)c1
REMARK SMILES IDX 2 1 8 2 6 3 5 4 4 5 3 6 1 7 7 9
REMARK H PARENT 1 8 7 10
ROOT
ATOM      1  C   UNL     1     -26.695  11.493   5.438  1.00  0.00    +0.119 A 
ATOM      2  C   UNL     1     -27.202  10.420   6.165  1.00  0.00    +0.092 A 
ATOM      3  C   UNL     1     -28.525  10.471   6.599  1.00  0.00    +0.119 A 
ATOM      4  C   UNL     1     -29.331  11.570   6.315  1.00  0.00    +0.046 A 
ATOM      5  C   UNL     1     -28.811  12.638   5.587  1.00  0.00    +0.008 A 
ATOM      6  C   UNL     1     -27.488  12.600   5.147  1.00  0.00    +0.046 A 
ENDROOT
BRANCH   1   7
ATOM      7  O   UNL     1     -25.408  11.502   4.986  1.00  0.00    -0.508 OA
ATOM      8  H   UNL     1     -25.251  12.328   4.502  1.00  0.00    +0.293 HD
ENDBRANCH   1   7
BRANCH   3   9
ATOM      9  O   UNL     1     -29.080   9.451   7.316  1.00  0.00    -0.508 OA
ATOM     10  H   UNL     1     -28.524   9.273   8.092  1.00  0.00    +0.293 HD
ENDBRANCH   3   9
TORSDOF 2
ENDMDL
MODEL 4
REMARK VINA RESULT:    -5.143     14.787     15.694
REMARK INTER + INTRA:          -5.444
REMARK INTER:                  -5.444
REMARK INTRA:                   0.000
REMARK UNBOUND:                 0.000
REMARK SMILES Oc1cccc(O)c1
REMARK SMILES IDX 2 1 8 2 6 3 5 4 4 5 3 6 1 7 7 9
REMARK H PARENT 1 8 7 10
ROOT
ATOM      1  C   UNL     1     -34.547  -2.518   0.571  1.00  0.00    +0.119 A 
ATOM      2  C   UNL     1     -34.203  -1.753  -0.540  1.00  0.00    +0.092 A 
ATOM      3  C   UNL     1     -33.344  -0.670  -0.367  1.00  0.00    +0.119 A 
ATOM      4  C   UNL     1     -32.836  -0.352   0.889  1.00  0.00    +0.046 A 
ATOM      5  C   UNL     1     -33.189  -1.126   1.994  1.00  0.00    +0.008 A 
ATOM      6  C   UNL     1     -34.048  -2.212   1.835  1.00  0.00    +0.046 A 
ENDROOT
BRANCH   1   7
ATOM      7  O   UNL     1     -35.384  -3.590   0.466  1.00  0.00    -0.508 OA
ATOM      8  H   UNL     1     -35.471  -4.008   1.338  1.00  0.00    +0.293 HD
ENDBRANCH   1   7
BRANCH   3   9
ATOM      9  O   UNL     1     -32.970   0.118  -1.417  1.00  0.00    -0.508 OA
ATOM     10  H   UNL     1     -32.701  -0.451  -2.157  1.00  0.00    +0.293 HD
ENDBRANCH   3   9
TORSDOF 2
ENDMDL
MODEL 5
REMARK VINA RESULT:    -5.119     14.734     15.645
REMARK INTER + INTRA:          -5.418
REMARK INTER:                  -5.418
REMARK INTRA:                   0.000
REMARK UNBOUND:                 0.000
REMARK SMILES Oc1cccc(O)c1
REMARK SMILES IDX 2 1 8 2 6 3 5 4 4 5 3 6 1 7 7 9
REMARK H PARENT 1 8 7 10
ROOT
ATOM      1  C   UNL     1     -34.572  -2.455   0.363  1.00  0.00    +0.119 A 
ATOM      2  C   UNL     1     -33.845  -1.973   1.448  1.00  0.00    +0.092 A 
ATOM      3  C   UNL     1     -33.077  -0.823   1.281  1.00  0.00    +0.119 A 
ATOM      4  C   UNL     1     -33.031  -0.163   0.056  1.00  0.00    +0.046 A 
ATOM      5  C   UNL     1     -33.764  -0.656  -1.022  1.00  0.00    +0.008 A 
ATOM      6  C   UNL     1     -34.537  -1.807  -0.869  1.00  0.00    +0.046 A 
ENDROOT
BRANCH   1   7
ATOM      7  O   UNL     1     -35.343  -3.576   0.463  1.00  0.00    -0.508 OA
ATOM      8  H   UNL     1     -36.010  -3.563  -0.241  1.00  0.00    +0.293 HD
ENDBRANCH   1   7
BRANCH   3   9
ATOM      9  O   UNL     1     -32.342  -0.302   2.306  1.00  0.00    -0.508 OA
ATOM     10  H   UNL     1     -31.574   0.164   1.937  1.00  0.00    +0.293 HD
ENDBRANCH   3   9
TORSDOF 2
ENDMDL
MODEL 6
REMARK VINA RESULT:    -5.095      3.440      4.901
REMARK INTER + INTRA:          -5.393
REMARK INTER:                  -5.393
REMARK INTRA:                   0.000
REMARK UNBOUND:                 0.000
REMARK SMILES Oc1cccc(O)c1
REMARK SMILES IDX 2 1 8 2 6 3 5 4 4 5 3 6 1 7 7 9
REMARK H PARENT 1 8 7 10
ROOT
ATOM      1  C   UNL     1     -29.615   9.463   6.941  1.00  0.00    +0.119 A 
ATOM      2  C   UNL     1     -30.900   9.055   7.286  1.00  0.00    +0.092 A 
ATOM      3  C   UNL     1     -31.834  10.022   7.651  1.00  0.00    +0.119 A 
ATOM      4  C   UNL     1     -31.495  11.372   7.674  1.00  0.00    +0.046 A 
ATOM      5  C   UNL     1     -30.205  11.767   7.326  1.00  0.00    +0.008 A 
ATOM      6  C   UNL     1     -29.260  10.809   6.959  1.00  0.00    +0.046 A 
ENDROOT
BRANCH   1   7
ATOM      7  O   UNL     1     -28.657   8.563   6.574  1.00  0.00    -0.508 OA
ATOM      8  H   UNL     1     -28.703   7.796   7.166  1.00  0.00    +0.293 HD
ENDBRANCH   1   7
BRANCH   3   9
ATOM      9  O   UNL     1     -33.109   9.686   8.000  1.00  0.00    -0.508 OA
ATOM     10  H   UNL     1     -33.159   8.723   8.120  1.00  0.00    +0.293 HD
ENDBRANCH   3   9
TORSDOF 2
ENDMDL
MODEL 7
REMARK VINA RESULT:    -5.004     14.586     15.469
REMARK INTER + INTRA:          -5.296
REMARK INTER:                  -5.296
REMARK INTRA:                   0.000
REMARK UNBOUND:                 0.000
REMARK SMILES Oc1cccc(O)c1
REMARK SMILES IDX 2 1 8 2 6 3 5 4 4 5 3 6 1 7 7 9
REMARK H PARENT 1 8 7 10
ROOT
ATOM      1  C   UNL     1     -33.005  -0.755   1.389  1.00  0.00    +0.119 A 
ATOM      2  C   UNL     1     -33.741  -1.931   1.499  1.00  0.00    +0.092 A 
ATOM      3  C   UNL     1     -34.493  -2.354   0.406  1.00  0.00    +0.119 A 
ATOM      4  C   UNL     1     -34.516  -1.620  -0.777  1.00  0.00    +0.046 A 
ATOM      5  C   UNL     1     -33.775  -0.443  -0.873  1.00  0.00    +0.008 A 
ATOM      6  C   UNL     1     -33.017  -0.008   0.213  1.00  0.00    +0.046 A 
ENDROOT
BRANCH   1   7
ATOM      7  O   UNL     1     -32.249  -0.288   2.424  1.00  0.00    -0.508 OA
ATOM      8  H   UNL     1     -32.714   0.451   2.845  1.00  0.00    +0.293 HD
ENDBRANCH   1   7
BRANCH   3   9
ATOM      9  O   UNL     1     -35.236  -3.499   0.452  1.00  0.00    -0.508 OA
ATOM     10  H   UNL     1     -34.823  -4.117   1.077  1.00  0.00    +0.293 HD
ENDBRANCH   3   9
TORSDOF 2
ENDMDL
MODEL 8
REMARK VINA RESULT:    -4.731      3.750      4.675
REMARK INTER + INTRA:          -5.008
REMARK INTER:                  -5.008
REMARK INTRA:                   0.000
REMARK UNBOUND:                 0.000
REMARK SMILES Oc1cccc(O)c1
REMARK SMILES IDX 2 1 8 2 6 3 5 4 4 5 3 6 1 7 7 9
REMARK H PARENT 1 8 7 10
ROOT
ATOM      1  C   UNL     1     -32.067   9.563   7.633  1.00  0.00    +0.119 A 
ATOM      2  C   UNL     1     -31.256  10.648   7.311  1.00  0.00    +0.092 A 
ATOM      3  C   UNL     1     -29.922  10.413   6.989  1.00  0.00    +0.119 A 
ATOM      4  C   UNL     1     -29.401   9.122   6.987  1.00  0.00    +0.046 A 
ATOM      5  C   UNL     1     -30.223   8.045   7.312  1.00  0.00    +0.008 A 
ATOM      6  C   UNL     1     -31.561   8.265   7.637  1.00  0.00    +0.046 A 
ENDROOT
BRANCH   1   7
ATOM      7  O   UNL     1     -33.382   9.728   7.957  1.00  0.00    -0.508 OA
ATOM      8  H   UNL     1     -33.750  10.449   7.422  1.00  0.00    +0.293 HD
ENDBRANCH   1   7
BRANCH   3   9
ATOM      9  O   UNL     1     -29.076  11.434   6.665  1.00  0.00    -0.508 OA
ATOM     10  H   UNL     1     -29.374  11.837   5.832  1.00  0.00    +0.293 HD
ENDBRANCH   3   9
TORSDOF 2
ENDMDL
MODEL 9
REMARK VINA RESULT:    -4.541      9.475     11.009
REMARK INTER + INTRA:          -4.807
REMARK INTER:                  -4.807
REMARK INTRA:                   0.000
REMARK UNBOUND:                 0.000
REMARK SMILES Oc1cccc(O)c1
REMARK SMILES IDX 2 1 8 2 6 3 5 4 4 5 3 6 1 7 7 9
REMARK H PARENT 1 8 7 10
ROOT
ATOM      1  C   UNL     1     -25.180   1.435   9.529  1.00  0.00    +0.119 A 
ATOM      2  C   UNL     1     -26.074   2.501   9.576  1.00  0.00    +0.092 A 
ATOM      3  C   UNL     1     -25.734   3.626  10.323  1.00  0.00    +0.119 A 
ATOM      4  C   UNL     1     -24.526   3.691  11.013  1.00  0.00    +0.046 A 
ATOM      5  C   UNL     1     -23.640   2.617  10.957  1.00  0.00    +0.008 A 
ATOM      6  C   UNL     1     -23.968   1.484  10.213  1.00  0.00    +0.046 A 
ENDROOT
BRANCH   1   7
ATOM      7  O   UNL     1     -25.455   0.305   8.814  1.00  0.00    -0.508 OA
ATOM      8  H   UNL     1     -24.751   0.167   8.162  1.00  0.00    +0.293 HD
ENDBRANCH   1   7
BRANCH   3   9
ATOM      9  O   UNL     1     -26.568   4.703  10.409  1.00  0.00    -0.508 OA
ATOM     10  H   UNL     1     -26.523   5.064  11.310  1.00  0.00    +0.293 HD
ENDBRANCH   3   9
TORSDOF 2
ENDMDL
