REMARK SMILES CCO[C@@H](C)c1ccccc1
REMARK SMILES IDX 3 1 2 2 1 3 4 4 5 5 6 6 7 7 11 8 8 9 10 10 9 11
REMARK H PARENT
ROOT
ATOM      1  O   UNL     1      -1.305   0.484   0.141  1.00  0.00    -0.374 OA
ENDROOT
BRANCH   1   2
ATOM      2  C   UNL     1      -2.660   0.048   0.110  1.00  0.00    +0.157 C 
ATOM      3  C   UNL     1      -3.482   0.987   0.970  1.00  0.00    +0.035 C 
ENDBRANCH   1   2
BRANCH   1   4
ATOM      4  C   UNL     1      -0.439  -0.313  -0.676  1.00  0.00    +0.145 C 
ATOM      5  C   UNL     1      -0.380   0.274  -2.084  1.00  0.00    +0.044 C 
BRANCH   4   6
ATOM      6  C   UNL     1       0.945  -0.343  -0.054  1.00  0.00    -0.020 A 
ATOM      7  C   UNL     1       1.488   0.787   0.578  1.00  0.00    +0.006 A 
ATOM      8  C   UNL     1       1.726  -1.507  -0.133  1.00  0.00    +0.006 A 
ATOM      9  C   UNL     1       2.771   0.751   1.125  1.00  0.00    +0.000 A 
ATOM     10  C   UNL     1       3.010  -1.542   0.414  1.00  0.00    +0.000 A 
ATOM     11  C   UNL     1       3.532  -0.413   1.043  1.00  0.00    +0.000 A 
ENDBRANCH   4   6
ENDBRANCH   1   4
TORSDOF 3
