REMARK SMILES Ic1cccs1
REMARK SMILES IDX 1 1 2 2 3 3 4 4 5 5 6 6
REMARK H PARENT
ROOT
ATOM      1  I   UNL     1       3.251   0.582   0.072  1.00  0.00    -0.032 I 
ATOM      2  C   UNL     1       1.167   0.401   0.022  1.00  0.00    +0.065 A 
ATOM      3  C   UNL     1       0.505  -0.802   0.029  1.00  0.00    +0.026 A 
ATOM      4  C   UNL     1      -0.909  -0.613  -0.011  1.00  0.00    +0.013 A 
ATOM      5  C   UNL     1      -1.253   0.723  -0.046  1.00  0.00    +0.066 A 
ATOM      6  S   UNL     1       0.128   1.739  -0.030  1.00  0.00    -0.138 S 
ENDROOT
TORSDOF 0
