MODEL 1
REMARK VINA RESULT:    -6.013      0.000      0.000
REMARK INTER + INTRA:          -6.013
REMARK INTER:                  -6.013
REMARK INTRA:                   0.000
REMARK UNBOUND:                 0.000
REMARK SMILES c1ccn2nncc2c1
REMARK SMILES IDX 2 1 3 2 4 3 5 4 6 5 7 6 8 7 9 8 1 9
REMARK H PARENT
ROOT
ATOM      1  C   UNL     1     -28.789  12.667   5.460  1.00  0.00    +0.020 A 
ATOM      2  C   UNL     1     -27.482  12.540   5.174  1.00  0.00    +0.115 A 
ATOM      3  N   UNL     1     -26.783  11.417   5.615  1.00  0.00    -0.221 N 
ATOM      4  N   UNL     1     -25.476  11.101   5.435  1.00  0.00    -0.062 NA
ATOM      5  N   UNL     1     -25.235   9.936   6.026  1.00  0.00    -0.138 NA
ATOM      6  C   UNL     1     -26.395   9.495   6.592  1.00  0.00    +0.165 A 
ATOM      7  C   UNL     1     -27.395  10.404   6.353  1.00  0.00    +0.086 A 
ATOM      8  C   UNL     1     -28.777  10.531   6.658  1.00  0.00    +0.030 A 
ATOM      9  C   UNL     1     -29.446  11.620   6.228  1.00  0.00    +0.004 A 
ENDROOT
TORSDOF 0
ENDMDL
MODEL 2
REMARK VINA RESULT:    -5.763      1.212      2.074
REMARK INTER + INTRA:          -5.763
REMARK INTER:                  -5.763
REMARK INTRA:                   0.000
REMARK UNBOUND:                 0.000
REMARK SMILES c1ccn2nncc2c1
REMARK SMILES IDX 2 1 3 2 4 3 5 4 6 5 7 6 8 7 9 8 1 9
REMARK H PARENT
ROOT
ATOM      1  C   UNL     1     -29.842  10.774   7.085  1.00  0.00    +0.020 A 
ATOM      2  C   UNL     1     -28.722  10.036   7.158  1.00  0.00    +0.115 A 
ATOM      3  N   UNL     1     -27.588  10.425   6.444  1.00  0.00    -0.221 N 
ATOM      4  N   UNL     1     -26.372   9.827   6.383  1.00  0.00    -0.062 NA
ATOM      5  N   UNL     1     -25.588  10.538   5.581  1.00  0.00    -0.138 NA
ATOM      6  C   UNL     1     -26.303  11.605   5.121  1.00  0.00    +0.165 A 
ATOM      7  C   UNL     1     -27.571  11.568   5.644  1.00  0.00    +0.086 A 
ATOM      8  C   UNL     1     -28.752  12.354   5.563  1.00  0.00    +0.030 A 
ATOM      9  C   UNL     1     -29.843  11.971   6.256  1.00  0.00    +0.004 A 
ENDROOT
TORSDOF 0
ENDMDL
MODEL 3
REMARK VINA RESULT:    -5.676     13.625     14.149
REMARK INTER + INTRA:          -5.676
REMARK INTER:                  -5.676
REMARK INTRA:                   0.000
REMARK UNBOUND:                 0.000
REMARK SMILES c1ccn2nncc2c1
REMARK SMILES IDX 2 1 3 2 4 3 5 4 6 5 7 6 8 7 9 8 1 9
REMARK H PARENT
ROOT
ATOM      1  C   UNL     1     -34.140  -1.974  -0.592  1.00  0.00    +0.020 A 
ATOM      2  C   UNL     1     -33.803  -0.709  -0.896  1.00  0.00    +0.115 A 
ATOM      3  N   UNL     1     -33.319   0.137   0.102  1.00  0.00    -0.221 N 
ATOM      4  N   UNL     1     -32.927   1.432   0.005  1.00  0.00    -0.062 NA
ATOM      5  N   UNL     1     -32.536   1.849   1.204  1.00  0.00    -0.138 NA
ATOM      6  C   UNL     1     -32.677   0.815   2.083  1.00  0.00    +0.165 A 
ATOM      7  C   UNL     1     -33.169  -0.284   1.423  1.00  0.00    +0.086 A 
ATOM      8  C   UNL     1     -33.523  -1.620   1.751  1.00  0.00    +0.030 A 
ATOM      9  C   UNL     1     -33.990  -2.431   0.782  1.00  0.00    +0.004 A 
ENDROOT
TORSDOF 0
ENDMDL
MODEL 4
REMARK VINA RESULT:    -5.148      2.073      3.023
REMARK INTER + INTRA:          -5.148
REMARK INTER:                  -5.148
REMARK INTRA:                   0.000
REMARK UNBOUND:                 0.000
REMARK SMILES c1ccn2nncc2c1
REMARK SMILES IDX 2 1 3 2 4 3 5 4 6 5 7 6 8 7 9 8 1 9
REMARK H PARENT
ROOT
ATOM      1  C   UNL     1     -28.313  10.316   6.405  1.00  0.00    +0.020 A 
ATOM      2  C   UNL     1     -28.091   9.146   7.029  1.00  0.00    +0.115 A 
ATOM      3  N   UNL     1     -26.800   8.622   7.080  1.00  0.00    -0.221 N 
ATOM      4  N   UNL     1     -26.369   7.471   7.654  1.00  0.00    -0.062 NA
ATOM      5  N   UNL     1     -25.059   7.365   7.463  1.00  0.00    -0.138 NA
ATOM      6  C   UNL     1     -24.640   8.457   6.760  1.00  0.00    +0.165 A 
ATOM      7  C   UNL     1     -25.711   9.274   6.500  1.00  0.00    +0.086 A 
ATOM      8  C   UNL     1     -25.938  10.512   5.840  1.00  0.00    +0.030 A 
ATOM      9  C   UNL     1     -27.189  11.011   5.794  1.00  0.00    +0.004 A 
ENDROOT
TORSDOF 0
ENDMDL
MODEL 5
REMARK VINA RESULT:    -5.018      9.485     10.302
REMARK INTER + INTRA:          -5.018
REMARK INTER:                  -5.018
REMARK INTRA:                   0.000
REMARK UNBOUND:                 0.000
REMARK SMILES c1ccn2nncc2c1
REMARK SMILES IDX 2 1 3 2 4 3 5 4 6 5 7 6 8 7 9 8 1 9
REMARK H PARENT
ROOT
ATOM      1  C   UNL     1     -25.187   4.050  11.091  1.00  0.00    +0.020 A 
ATOM      2  C   UNL     1     -25.003   3.234  10.040  1.00  0.00    +0.115 A 
ATOM      3  N   UNL     1     -25.769   2.075   9.920  1.00  0.00    -0.221 N 
ATOM      4  N   UNL     1     -25.739   1.130   8.947  1.00  0.00    -0.062 NA
ATOM      5  N   UNL     1     -26.641   0.198   9.232  1.00  0.00    -0.138 NA
ATOM      6  C   UNL     1     -27.259   0.543  10.399  1.00  0.00    +0.165 A 
ATOM      7  C   UNL     1     -26.735   1.723  10.863  1.00  0.00    +0.086 A 
ATOM      8  C   UNL     1     -26.936   2.582  11.977  1.00  0.00    +0.030 A 
ATOM      9  C   UNL     1     -26.191   3.700  12.086  1.00  0.00    +0.004 A 
ENDROOT
TORSDOF 0
ENDMDL
MODEL 6
REMARK VINA RESULT:    -4.991      1.361      2.976
REMARK INTER + INTRA:          -4.991
REMARK INTER:                  -4.991
REMARK INTRA:                   0.000
REMARK UNBOUND:                 0.000
REMARK SMILES c1ccn2nncc2c1
REMARK SMILES IDX 2 1 3 2 4 3 5 4 6 5 7 6 8 7 9 8 1 9
REMARK H PARENT
ROOT
ATOM      1  C   UNL     1     -26.402   9.372   5.977  1.00  0.00    +0.020 A 
ATOM      2  C   UNL     1     -26.190  10.529   5.327  1.00  0.00    +0.115 A 
ATOM      3  N   UNL     1     -27.183  11.507   5.309  1.00  0.00    -0.221 N 
ATOM      4  N   UNL     1     -27.168  12.728   4.718  1.00  0.00    -0.062 NA
ATOM      5  N   UNL     1     -28.328  13.330   4.955  1.00  0.00    -0.138 NA
ATOM      6  C   UNL     1     -29.099  12.491   5.706  1.00  0.00    +0.165 A 
ATOM      7  C   UNL     1     -28.410  11.330   5.950  1.00  0.00    +0.086 A 
ATOM      8  C   UNL     1     -28.642  10.110   6.640  1.00  0.00    +0.030 A 
ATOM      9  C   UNL     1     -27.676   9.169   6.653  1.00  0.00    +0.004 A 
ENDROOT
TORSDOF 0
ENDMDL
MODEL 7
REMARK VINA RESULT:    -4.888      2.337      2.926
REMARK INTER + INTRA:          -4.888
REMARK INTER:                  -4.888
REMARK INTRA:                   0.000
REMARK UNBOUND:                 0.000
REMARK SMILES c1ccn2nncc2c1
REMARK SMILES IDX 2 1 3 2 4 3 5 4 6 5 7 6 8 7 9 8 1 9
REMARK H PARENT
ROOT
ATOM      1  C   UNL     1     -28.244  10.610   6.322  1.00  0.00    +0.020 A 
ATOM      2  C   UNL     1     -27.067   9.982   6.483  1.00  0.00    +0.115 A 
ATOM      3  N   UNL     1     -27.028   8.727   7.089  1.00  0.00    -0.221 N 
ATOM      4  N   UNL     1     -25.956   7.935   7.343  1.00  0.00    -0.062 NA
ATOM      5  N   UNL     1     -26.379   6.824   7.935  1.00  0.00    -0.138 NA
ATOM      6  C   UNL     1     -27.735   6.899   8.066  1.00  0.00    +0.165 A 
ATOM      7  C   UNL     1     -28.181   8.086   7.543  1.00  0.00    +0.086 A 
ATOM      8  C   UNL     1     -29.430   8.743   7.375  1.00  0.00    +0.030 A 
ATOM      9  C   UNL     1     -29.459   9.956   6.788  1.00  0.00    +0.004 A 
ENDROOT
TORSDOF 0
ENDMDL
MODEL 8
REMARK VINA RESULT:    -4.874      8.957     11.012
REMARK INTER + INTRA:          -4.874
REMARK INTER:                  -4.874
REMARK INTRA:                   0.000
REMARK UNBOUND:                 0.000
REMARK SMILES c1ccn2nncc2c1
REMARK SMILES IDX 2 1 3 2 4 3 5 4 6 5 7 6 8 7 9 8 1 9
REMARK H PARENT
ROOT
ATOM      1  C   UNL     1     -23.099   0.315  10.671  1.00  0.00    +0.020 A 
ATOM      2  C   UNL     1     -24.214   0.220   9.927  1.00  0.00    +0.115 A 
ATOM      3  N   UNL     1     -24.965   1.362   9.654  1.00  0.00    -0.221 N 
ATOM      4  N   UNL     1     -26.107   1.480   8.932  1.00  0.00    -0.062 NA
ATOM      5  N   UNL     1     -26.480   2.755   8.930  1.00  0.00    -0.138 NA
ATOM      6  C   UNL     1     -25.571   3.467   9.657  1.00  0.00    +0.165 A 
ATOM      7  C   UNL     1     -24.599   2.622  10.130  1.00  0.00    +0.086 A 
ATOM      8  C   UNL     1     -23.420   2.731  10.916  1.00  0.00    +0.030 A 
ATOM      9  C   UNL     1     -22.701   1.621  11.176  1.00  0.00    +0.004 A 
ENDROOT
TORSDOF 0
ENDMDL
MODEL 9
REMARK VINA RESULT:    -4.759      3.603      4.560
REMARK INTER + INTRA:          -4.759
REMARK INTER:                  -4.759
REMARK INTRA:                   0.000
REMARK UNBOUND:                 0.000
REMARK SMILES c1ccn2nncc2c1
REMARK SMILES IDX 2 1 3 2 4 3 5 4 6 5 7 6 8 7 9 8 1 9
REMARK H PARENT
ROOT
ATOM      1  C   UNL     1     -28.313  10.400   6.474  1.00  0.00    +0.020 A 
ATOM      2  C   UNL     1     -28.739   9.159   6.766  1.00  0.00    +0.115 A 
ATOM      3  N   UNL     1     -30.068   8.950   7.130  1.00  0.00    -0.221 N 
ATOM      4  N   UNL     1     -30.690   7.790   7.459  1.00  0.00    -0.062 NA
ATOM      5  N   UNL     1     -31.962   8.054   7.738  1.00  0.00    -0.138 NA
ATOM      6  C   UNL     1     -32.163   9.395   7.589  1.00  0.00    +0.165 A 
ATOM      7  C   UNL     1     -30.990   9.995   7.205  1.00  0.00    +0.086 A 
ATOM      8  C   UNL     1     -30.548  11.309   6.897  1.00  0.00    +0.030 A 
ATOM      9  C   UNL     1     -29.261  11.503   6.546  1.00  0.00    +0.004 A 
ENDROOT
TORSDOF 0
ENDMDL
