MODEL 1
REMARK VINA RESULT:    -7.596      0.000      0.000
REMARK INTER + INTRA:          -7.596
REMARK INTER:                  -7.596
REMARK INTRA:                   0.000
REMARK UNBOUND:                 0.000
REMARK SMILES Cc1ccc2nc(C)ccc2c1
REMARK SMILES IDX 1 1 2 2 12 3 11 4 5 5 4 6 3 7 6 8 7 9 8 10 9 11 10 12
REMARK H PARENT
ROOT
ATOM      1  C   UNL     1     -28.650  12.598   5.448  1.00  0.00    +0.044 C 
ATOM      2  C   UNL     1     -28.225  11.281   6.027  1.00  0.00    -0.050 A 
ATOM      3  C   UNL     1     -26.935  10.790   5.807  1.00  0.00    +0.013 A 
ATOM      4  C   UNL     1     -26.543   9.540   6.321  1.00  0.00    +0.000 A 
ATOM      5  C   UNL     1     -27.453   8.757   7.059  1.00  0.00    +0.070 A 
ATOM      6  C   UNL     1     -28.733   9.255   7.255  1.00  0.00    +0.029 A 
ATOM      7  C   UNL     1     -29.129  10.496   6.746  1.00  0.00    +0.005 A 
ATOM      8  N   UNL     1     -27.123   7.556   7.571  1.00  0.00    -0.253 NA
ATOM      9  C   UNL     1     -25.870   7.087   7.366  1.00  0.00    +0.038 A 
ATOM     10  C   UNL     1     -25.537   5.746   7.949  1.00  0.00    +0.067 C 
ATOM     11  C   UNL     1     -24.911   7.790   6.650  1.00  0.00    +0.024 A 
ATOM     12  C   UNL     1     -25.254   9.031   6.123  1.00  0.00    +0.012 A 
ENDROOT
TORSDOF 0
ENDMDL
MODEL 2
REMARK VINA RESULT:    -7.539      0.946      2.140
REMARK INTER + INTRA:          -7.539
REMARK INTER:                  -7.539
REMARK INTRA:                   0.000
REMARK UNBOUND:                 0.000
REMARK SMILES Cc1ccc2nc(C)ccc2c1
REMARK SMILES IDX 1 1 2 2 12 3 11 4 5 5 4 6 3 7 6 8 7 9 8 10 9 11 10 12
REMARK H PARENT
ROOT
ATOM      1  C   UNL     1     -28.723  12.600   5.467  1.00  0.00    +0.044 C 
ATOM      2  C   UNL     1     -28.026  11.335   5.871  1.00  0.00    -0.050 A 
ATOM      3  C   UNL     1     -28.706  10.344   6.587  1.00  0.00    +0.013 A 
ATOM      4  C   UNL     1     -28.046   9.171   6.995  1.00  0.00    +0.000 A 
ATOM      5  C   UNL     1     -26.683   8.980   6.698  1.00  0.00    +0.070 A 
ATOM      6  C   UNL     1     -26.021   9.980   6.000  1.00  0.00    +0.029 A 
ATOM      7  C   UNL     1     -26.671  11.150   5.592  1.00  0.00    +0.005 A 
ATOM      8  N   UNL     1     -26.011   7.874   7.068  1.00  0.00    -0.253 NA
ATOM      9  C   UNL     1     -26.673   6.911   7.751  1.00  0.00    +0.038 A 
ATOM     10  C   UNL     1     -25.894   5.693   8.147  1.00  0.00    +0.067 C 
ATOM     11  C   UNL     1     -28.016   7.017   8.087  1.00  0.00    +0.024 A 
ATOM     12  C   UNL     1     -28.708   8.160   7.703  1.00  0.00    +0.012 A 
ENDROOT
TORSDOF 0
ENDMDL
MODEL 3
REMARK VINA RESULT:    -7.347      1.140      4.865
REMARK INTER + INTRA:          -7.347
REMARK INTER:                  -7.347
REMARK INTRA:                   0.000
REMARK UNBOUND:                 0.000
REMARK SMILES Cc1ccc2nc(C)ccc2c1
REMARK SMILES IDX 1 1 2 2 12 3 11 4 5 5 4 6 3 7 6 8 7 9 8 10 9 11 10 12
REMARK H PARENT
ROOT
ATOM      1  C   UNL     1     -25.660   5.617   7.793  1.00  0.00    +0.044 C 
ATOM      2  C   UNL     1     -26.013   6.990   7.307  1.00  0.00    -0.050 A 
ATOM      3  C   UNL     1     -27.309   7.492   7.467  1.00  0.00    +0.013 A 
ATOM      4  C   UNL     1     -27.651   8.768   6.983  1.00  0.00    +0.000 A 
ATOM      5  C   UNL     1     -26.694   9.558   6.318  1.00  0.00    +0.070 A 
ATOM      6  C   UNL     1     -25.418   9.038   6.155  1.00  0.00    +0.029 A 
ATOM      7  C   UNL     1     -25.071   7.770   6.633  1.00  0.00    +0.005 A 
ATOM      8  N   UNL     1     -26.976  10.784   5.838  1.00  0.00    -0.253 NA
ATOM      9  C   UNL     1     -28.228  11.272   6.004  1.00  0.00    +0.038 A 
ATOM     10  C   UNL     1     -28.507  12.640   5.457  1.00  0.00    +0.067 C 
ATOM     11  C   UNL     1     -29.233  10.561   6.645  1.00  0.00    +0.024 A 
ATOM     12  C   UNL     1     -28.939   9.295   7.140  1.00  0.00    +0.012 A 
ENDROOT
TORSDOF 0
ENDMDL
MODEL 4
REMARK VINA RESULT:    -7.223      2.808      4.825
REMARK INTER + INTRA:          -7.223
REMARK INTER:                  -7.223
REMARK INTRA:                   0.000
REMARK UNBOUND:                 0.000
REMARK SMILES Cc1ccc2nc(C)ccc2c1
REMARK SMILES IDX 1 1 2 2 12 3 11 4 5 5 4 6 3 7 6 8 7 9 8 10 9 11 10 12
REMARK H PARENT
ROOT
ATOM      1  C   UNL     1     -31.718   6.933   8.049  1.00  0.00    +0.044 C 
ATOM      2  C   UNL     1     -31.177   8.233   7.533  1.00  0.00    -0.050 A 
ATOM      3  C   UNL     1     -29.867   8.317   7.050  1.00  0.00    +0.013 A 
ATOM      4  C   UNL     1     -29.346   9.542   6.594  1.00  0.00    +0.000 A 
ATOM      5  C   UNL     1     -30.134  10.708   6.629  1.00  0.00    +0.070 A 
ATOM      6  C   UNL     1     -31.426  10.608   7.125  1.00  0.00    +0.029 A 
ATOM      7  C   UNL     1     -31.950   9.394   7.579  1.00  0.00    +0.005 A 
ATOM      8  N   UNL     1     -29.678  11.901   6.204  1.00  0.00    -0.253 NA
ATOM      9  C   UNL     1     -28.413  11.979   5.726  1.00  0.00    +0.038 A 
ATOM     10  C   UNL     1     -27.938  13.323   5.262  1.00  0.00    +0.067 C 
ATOM     11  C   UNL     1     -27.567  10.881   5.658  1.00  0.00    +0.024 A 
ATOM     12  C   UNL     1     -28.041   9.649   6.097  1.00  0.00    +0.012 A 
ENDROOT
TORSDOF 0
ENDMDL
MODEL 5
REMARK VINA RESULT:    -6.763      2.717      5.394
REMARK INTER + INTRA:          -6.763
REMARK INTER:                  -6.763
REMARK INTRA:                   0.000
REMARK UNBOUND:                 0.000
REMARK SMILES Cc1ccc2nc(C)ccc2c1
REMARK SMILES IDX 1 1 2 2 12 3 11 4 5 5 4 6 3 7 6 8 7 9 8 10 9 11 10 12
REMARK H PARENT
ROOT
ATOM      1  C   UNL     1     -31.781   6.146   8.543  1.00  0.00    +0.044 C 
ATOM      2  C   UNL     1     -30.958   7.291   8.034  1.00  0.00    -0.050 A 
ATOM      3  C   UNL     1     -31.572   8.459   7.569  1.00  0.00    +0.013 A 
ATOM      4  C   UNL     1     -30.803   9.522   7.062  1.00  0.00    +0.000 A 
ATOM      5  C   UNL     1     -29.400   9.423   7.004  1.00  0.00    +0.070 A 
ATOM      6  C   UNL     1     -28.809   8.252   7.456  1.00  0.00    +0.029 A 
ATOM      7  C   UNL     1     -29.567   7.190   7.961  1.00  0.00    +0.005 A 
ATOM      8  N   UNL     1     -28.624  10.414   6.527  1.00  0.00    -0.253 NA
ATOM      9  C   UNL     1     -29.220  11.548   6.087  1.00  0.00    +0.038 A 
ATOM     10  C   UNL     1     -28.326  12.632   5.562  1.00  0.00    +0.067 C 
ATOM     11  C   UNL     1     -30.596  11.731   6.106  1.00  0.00    +0.024 A 
ATOM     12  C   UNL     1     -31.394  10.705   6.600  1.00  0.00    +0.012 A 
ENDROOT
TORSDOF 0
ENDMDL
MODEL 6
REMARK VINA RESULT:    -6.428      5.695      7.162
REMARK INTER + INTRA:          -6.428
REMARK INTER:                  -6.428
REMARK INTRA:                   0.000
REMARK UNBOUND:                 0.000
REMARK SMILES Cc1ccc2nc(C)ccc2c1
REMARK SMILES IDX 1 1 2 2 12 3 11 4 5 5 4 6 3 7 6 8 7 9 8 10 9 11 10 12
REMARK H PARENT
ROOT
ATOM      1  C   UNL     1     -29.804   8.843   6.982  1.00  0.00    +0.044 C 
ATOM      2  C   UNL     1     -30.980   7.914   6.929  1.00  0.00    -0.050 A 
ATOM      3  C   UNL     1     -31.230   7.022   7.977  1.00  0.00    +0.013 A 
ATOM      4  C   UNL     1     -32.314   6.127   7.916  1.00  0.00    +0.000 A 
ATOM      5  C   UNL     1     -33.160   6.108   6.790  1.00  0.00    +0.070 A 
ATOM      6  C   UNL     1     -32.888   6.990   5.755  1.00  0.00    +0.029 A 
ATOM      7  C   UNL     1     -31.812   7.882   5.808  1.00  0.00    +0.005 A 
ATOM      8  N   UNL     1     -34.208   5.270   6.688  1.00  0.00    -0.253 NA
ATOM      9  C   UNL     1     -34.456   4.414   7.708  1.00  0.00    +0.038 A 
ATOM     10  C   UNL     1     -35.631   3.494   7.560  1.00  0.00    +0.067 C 
ATOM     11  C   UNL     1     -33.673   4.363   8.853  1.00  0.00    +0.024 A 
ATOM     12  C   UNL     1     -32.591   5.231   8.956  1.00  0.00    +0.012 A 
ENDROOT
TORSDOF 0
ENDMDL
MODEL 7
REMARK VINA RESULT:    -6.255      5.052      7.745
REMARK INTER + INTRA:          -6.255
REMARK INTER:                  -6.255
REMARK INTRA:                   0.000
REMARK UNBOUND:                 0.000
REMARK SMILES Cc1ccc2nc(C)ccc2c1
REMARK SMILES IDX 1 1 2 2 12 3 11 4 5 5 4 6 3 7 6 8 7 9 8 10 9 11 10 12
REMARK H PARENT
ROOT
ATOM      1  C   UNL     1     -25.532   5.628   7.802  1.00  0.00    +0.044 C 
ATOM      2  C   UNL     1     -25.808   4.726   8.967  1.00  0.00    -0.050 A 
ATOM      3  C   UNL     1     -27.023   4.039   9.064  1.00  0.00    +0.013 A 
ATOM      4  C   UNL     1     -27.298   3.217  10.172  1.00  0.00    +0.000 A 
ATOM      5  C   UNL     1     -26.355   3.081  11.210  1.00  0.00    +0.070 A 
ATOM      6  C   UNL     1     -25.162   3.781  11.103  1.00  0.00    +0.029 A 
ATOM      7  C   UNL     1     -24.883   4.600  10.005  1.00  0.00    +0.005 A 
ATOM      8  N   UNL     1     -26.575   2.305  12.288  1.00  0.00    -0.253 NA
ATOM      9  C   UNL     1     -27.747   1.633  12.375  1.00  0.00    +0.038 A 
ATOM     10  C   UNL     1     -27.958   0.779  13.589  1.00  0.00    +0.067 C 
ATOM     11  C   UNL     1     -28.732   1.710  11.400  1.00  0.00    +0.024 A 
ATOM     12  C   UNL     1     -28.502   2.512  10.287  1.00  0.00    +0.012 A 
ENDROOT
TORSDOF 0
ENDMDL
MODEL 8
REMARK VINA RESULT:    -6.183      8.205     10.207
REMARK INTER + INTRA:          -6.183
REMARK INTER:                  -6.183
REMARK INTRA:                   0.000
REMARK UNBOUND:                 0.000
REMARK SMILES Cc1ccc2nc(C)ccc2c1
REMARK SMILES IDX 1 1 2 2 12 3 11 4 5 5 4 6 3 7 6 8 7 9 8 10 9 11 10 12
REMARK H PARENT
ROOT
ATOM      1  C   UNL     1     -31.129   4.743   9.031  1.00  0.00    +0.044 C 
ATOM      2  C   UNL     1     -32.587   5.095   9.012  1.00  0.00    -0.050 A 
ATOM      3  C   UNL     1     -33.415   4.759  10.087  1.00  0.00    +0.013 A 
ATOM      4  C   UNL     1     -34.789   5.059  10.059  1.00  0.00    +0.000 A 
ATOM      5  C   UNL     1     -35.356   5.696   8.937  1.00  0.00    +0.070 A 
ATOM      6  C   UNL     1     -34.522   6.009   7.874  1.00  0.00    +0.029 A 
ATOM      7  C   UNL     1     -33.155   5.713   7.896  1.00  0.00    +0.005 A 
ATOM      8  N   UNL     1     -36.664   6.003   8.865  1.00  0.00    -0.253 NA
ATOM      9  C   UNL     1     -37.463   5.686   9.912  1.00  0.00    +0.038 A 
ATOM     10  C   UNL     1     -38.915   6.042   9.798  1.00  0.00    +0.067 C 
ATOM     11  C   UNL     1     -36.989   5.057  11.055  1.00  0.00    +0.024 A 
ATOM     12  C   UNL     1     -35.637   4.741  11.127  1.00  0.00    +0.012 A 
ENDROOT
TORSDOF 0
ENDMDL
MODEL 9
REMARK VINA RESULT:    -6.028      8.671     11.258
REMARK INTER + INTRA:          -6.028
REMARK INTER:                  -6.028
REMARK INTRA:                   0.000
REMARK UNBOUND:                 0.000
REMARK SMILES Cc1ccc2nc(C)ccc2c1
REMARK SMILES IDX 1 1 2 2 12 3 11 4 5 5 4 6 3 7 6 8 7 9 8 10 9 11 10 12
REMARK H PARENT
ROOT
ATOM      1  C   UNL     1     -32.523  -2.419  11.416  1.00  0.00    +0.044 C 
ATOM      2  C   UNL     1     -31.400  -1.425  11.384  1.00  0.00    -0.050 A 
ATOM      3  C   UNL     1     -30.976  -0.792  12.557  1.00  0.00    +0.013 A 
ATOM      4  C   UNL     1     -29.944   0.164  12.525  1.00  0.00    +0.000 A 
ATOM      5  C   UNL     1     -29.330   0.509  11.306  1.00  0.00    +0.070 A 
ATOM      6  C   UNL     1     -29.774  -0.118  10.151  1.00  0.00    +0.029 A 
ATOM      7  C   UNL     1     -30.799  -1.070  10.175  1.00  0.00    +0.005 A 
ATOM      8  N   UNL     1     -28.340   1.418  11.228  1.00  0.00    -0.253 NA
ATOM      9  C   UNL     1     -27.922   2.021  12.366  1.00  0.00    +0.038 A 
ATOM     10  C   UNL     1     -26.818   3.028  12.242  1.00  0.00    +0.067 C 
ATOM     11  C   UNL     1     -28.473   1.743  13.609  1.00  0.00    +0.024 A 
ATOM     12  C   UNL     1     -29.495   0.804  13.687  1.00  0.00    +0.012 A 
ENDROOT
TORSDOF 0
ENDMDL
