MODEL 1
REMARK VINA RESULT:    -6.799      0.000      0.000
REMARK INTER + INTRA:          -8.353
REMARK INTER:                  -8.190
REMARK INTRA:                  -0.163
REMARK UNBOUND:                -0.163
REMARK SMILES CC[C@H](O)c1ccc(OC)cc1
REMARK SMILES IDX 5 1 6 2 7 3 8 4 11 5 12 6 3 7 2 8 1 9 4 10 9 12 10 13
REMARK H PARENT 4 11
ROOT
ATOM      1  C   UNL     1     -29.443  11.402   6.546  1.00  0.00    -0.019 A 
ATOM      2  C   UNL     1     -28.842  10.250   7.084  1.00  0.00    +0.010 A 
ATOM      3  C   UNL     1     -27.532   9.897   6.753  1.00  0.00    +0.047 A 
ATOM      4  C   UNL     1     -26.789  10.672   5.865  1.00  0.00    +0.118 A 
ATOM      5  C   UNL     1     -27.378  11.805   5.305  1.00  0.00    +0.047 A 
ATOM      6  C   UNL     1     -28.693  12.160   5.637  1.00  0.00    +0.010 A 
ENDROOT
BRANCH   1   7
ATOM      7  C   UNL     1     -30.881  11.723   6.922  1.00  0.00    +0.144 C 
BRANCH   7   8
ATOM      8  C   UNL     1     -31.498  10.978   8.120  1.00  0.00    +0.033 C 
ATOM      9  C   UNL     1     -32.208   9.677   7.759  1.00  0.00    +0.007 C 
ENDBRANCH   7   8
BRANCH   7  10
ATOM     10  O   UNL     1     -31.739  11.521   5.795  1.00  0.00    -0.388 OA
ATOM     11  H   UNL     1     -32.655  11.572   6.121  1.00  0.00    +0.211 HD
ENDBRANCH   7  10
ENDBRANCH   1   7
BRANCH   4  12
ATOM     12  O   UNL     1     -25.522  10.219   5.627  1.00  0.00    -0.497 OA
ATOM     13  C   UNL     1     -25.096   9.082   6.368  1.00  0.00    +0.278 C 
ENDBRANCH   4  12
TORSDOF 4
ENDMDL
MODEL 2
REMARK VINA RESULT:    -6.501      1.968      3.127
REMARK INTER + INTRA:          -7.995
REMARK INTER:                  -7.696
REMARK INTRA:                  -0.299
REMARK UNBOUND:                -0.163
REMARK SMILES CC[C@H](O)c1ccc(OC)cc1
REMARK SMILES IDX 5 1 6 2 7 3 8 4 11 5 12 6 3 7 2 8 1 9 4 10 9 12 10 13
REMARK H PARENT 4 11
ROOT
ATOM      1  C   UNL     1     -30.929   9.502   7.176  1.00  0.00    -0.019 A 
ATOM      2  C   UNL     1     -29.613   9.030   7.019  1.00  0.00    +0.010 A 
ATOM      3  C   UNL     1     -28.592   9.871   6.570  1.00  0.00    +0.047 A 
ATOM      4  C   UNL     1     -28.857  11.201   6.250  1.00  0.00    +0.118 A 
ATOM      5  C   UNL     1     -30.160  11.679   6.378  1.00  0.00    +0.047 A 
ATOM      6  C   UNL     1     -31.185  10.835   6.829  1.00  0.00    +0.010 A 
ENDROOT
BRANCH   1   7
ATOM      7  C   UNL     1     -32.004   8.534   7.643  1.00  0.00    +0.144 C 
BRANCH   7   8
ATOM      8  C   UNL     1     -32.235   7.256   6.817  1.00  0.00    +0.033 C 
ATOM      9  C   UNL     1     -32.537   7.501   5.342  1.00  0.00    +0.007 C 
ENDBRANCH   7   8
BRANCH   7  10
ATOM     10  O   UNL     1     -33.259   9.212   7.755  1.00  0.00    -0.388 OA
ATOM     11  H   UNL     1     -33.543   9.437   6.852  1.00  0.00    +0.211 HD
ENDBRANCH   7  10
ENDBRANCH   1   7
BRANCH   4  12
ATOM     12  O   UNL     1     -27.773  11.917   5.825  1.00  0.00    -0.497 OA
ATOM     13  C   UNL     1     -28.032  13.171   5.206  1.00  0.00    +0.278 C 
ENDBRANCH   4  12
TORSDOF 4
ENDMDL
MODEL 3
REMARK VINA RESULT:    -6.189      2.196      5.126
REMARK INTER + INTRA:          -7.618
REMARK INTER:                  -7.417
REMARK INTRA:                  -0.201
REMARK UNBOUND:                -0.163
REMARK SMILES CC[C@H](O)c1ccc(OC)cc1
REMARK SMILES IDX 5 1 6 2 7 3 8 4 11 5 12 6 3 7 2 8 1 9 4 10 9 12 10 13
REMARK H PARENT 4 11
ROOT
ATOM      1  C   UNL     1     -26.603   8.658   6.641  1.00  0.00    -0.019 A 
ATOM      2  C   UNL     1     -27.857   8.775   7.267  1.00  0.00    +0.010 A 
ATOM      3  C   UNL     1     -28.686   9.873   7.024  1.00  0.00    +0.047 A 
ATOM      4  C   UNL     1     -28.281  10.893   6.165  1.00  0.00    +0.118 A 
ATOM      5  C   UNL     1     -27.032  10.804   5.554  1.00  0.00    +0.047 A 
ATOM      6  C   UNL     1     -26.199   9.700   5.796  1.00  0.00    +0.010 A 
ENDROOT
BRANCH   1   7
ATOM      7  C   UNL     1     -25.733   7.452   6.962  1.00  0.00    +0.144 C 
BRANCH   7   8
ATOM      8  C   UNL     1     -26.370   6.288   7.741  1.00  0.00    +0.033 C 
ATOM      9  C   UNL     1     -25.377   5.418   8.504  1.00  0.00    +0.007 C 
ENDBRANCH   7   8
BRANCH   7  10
ATOM     10  O   UNL     1     -24.566   7.868   7.678  1.00  0.00    -0.388 OA
ATOM     11  H   UNL     1     -24.057   8.445   7.083  1.00  0.00    +0.211 HD
ENDBRANCH   7  10
ENDBRANCH   1   7
BRANCH   4  12
ATOM     12  O   UNL     1     -29.183  11.908   6.013  1.00  0.00    -0.497 OA
ATOM     13  C   UNL     1     -30.534  11.624   6.355  1.00  0.00    +0.278 C 
ENDBRANCH   4  12
TORSDOF 4
ENDMDL
MODEL 4
REMARK VINA RESULT:    -5.912      2.475      3.544
REMARK INTER + INTRA:          -7.285
REMARK INTER:                  -7.092
REMARK INTRA:                  -0.193
REMARK UNBOUND:                -0.163
REMARK SMILES CC[C@H](O)c1ccc(OC)cc1
REMARK SMILES IDX 5 1 6 2 7 3 8 4 11 5 12 6 3 7 2 8 1 9 4 10 9 12 10 13
REMARK H PARENT 4 11
ROOT
ATOM      1  C   UNL     1     -30.770   8.237   7.272  1.00  0.00    -0.019 A 
ATOM      2  C   UNL     1     -30.332   9.509   6.864  1.00  0.00    +0.010 A 
ATOM      3  C   UNL     1     -28.985   9.870   6.946  1.00  0.00    +0.047 A 
ATOM      4  C   UNL     1     -28.040   8.979   7.451  1.00  0.00    +0.118 A 
ATOM      5  C   UNL     1     -28.460   7.722   7.881  1.00  0.00    +0.047 A 
ATOM      6  C   UNL     1     -29.813   7.359   7.798  1.00  0.00    +0.010 A 
ENDROOT
BRANCH   1   7
ATOM      7  C   UNL     1     -32.252   7.908   7.184  1.00  0.00    +0.144 C 
BRANCH   7   8
ATOM      8  C   UNL     1     -32.794   7.367   5.849  1.00  0.00    +0.033 C 
ATOM      9  C   UNL     1     -33.650   6.110   5.976  1.00  0.00    +0.007 C 
ENDBRANCH   7   8
BRANCH   7  10
ATOM     10  O   UNL     1     -33.030   9.057   7.536  1.00  0.00    -0.388 OA
ATOM     11  H   UNL     1     -33.070   9.087   8.507  1.00  0.00    +0.211 HD
ENDBRANCH   7  10
ENDBRANCH   1   7
BRANCH   4  12
ATOM     12  O   UNL     1     -26.758   9.454   7.476  1.00  0.00    -0.497 OA
ATOM     13  C   UNL     1     -26.275  10.063   6.285  1.00  0.00    +0.278 C 
ENDBRANCH   4  12
TORSDOF 4
ENDMDL
MODEL 5
REMARK VINA RESULT:    -5.880      2.267      2.875
REMARK INTER + INTRA:          -7.247
REMARK INTER:                  -7.007
REMARK INTRA:                  -0.239
REMARK UNBOUND:                -0.163
REMARK SMILES CC[C@H](O)c1ccc(OC)cc1
REMARK SMILES IDX 5 1 6 2 7 3 8 4 11 5 12 6 3 7 2 8 1 9 4 10 9 12 10 13
REMARK H PARENT 4 11
ROOT
ATOM      1  C   UNL     1     -29.764   9.167   6.824  1.00  0.00    -0.019 A 
ATOM      2  C   UNL     1     -29.900   8.027   7.635  1.00  0.00    +0.010 A 
ATOM      3  C   UNL     1     -28.786   7.281   8.027  1.00  0.00    +0.047 A 
ATOM      4  C   UNL     1     -27.507   7.641   7.607  1.00  0.00    +0.118 A 
ATOM      5  C   UNL     1     -27.356   8.755   6.783  1.00  0.00    +0.047 A 
ATOM      6  C   UNL     1     -28.475   9.505   6.391  1.00  0.00    +0.010 A 
ENDROOT
BRANCH   1   7
ATOM      7  C   UNL     1     -31.015   9.925   6.408  1.00  0.00    +0.144 C 
BRANCH   7   8
ATOM      8  C   UNL     1     -30.981  11.463   6.467  1.00  0.00    +0.033 C 
ATOM      9  C   UNL     1     -30.531  12.035   7.807  1.00  0.00    +0.007 C 
ENDBRANCH   7   8
BRANCH   7  10
ATOM     10  O   UNL     1     -32.135   9.484   7.183  1.00  0.00    -0.388 OA
ATOM     11  H   UNL     1     -31.822   9.370   8.097  1.00  0.00    +0.211 HD
ENDBRANCH   7  10
ENDBRANCH   1   7
BRANCH   4  12
ATOM     12  O   UNL     1     -26.504   6.830   8.060  1.00  0.00    -0.497 OA
ATOM     13  C   UNL     1     -25.288   6.839   7.323  1.00  0.00    +0.278 C 
ENDBRANCH   4  12
TORSDOF 4
ENDMDL
MODEL 6
REMARK VINA RESULT:    -5.608      8.187     10.783
REMARK INTER + INTRA:          -6.919
REMARK INTER:                  -6.632
REMARK INTRA:                  -0.287
REMARK UNBOUND:                -0.163
REMARK SMILES CC[C@H](O)c1ccc(OC)cc1
REMARK SMILES IDX 5 1 6 2 7 3 8 4 11 5 12 6 3 7 2 8 1 9 4 10 9 12 10 13
REMARK H PARENT 4 11
ROOT
ATOM      1  C   UNL     1     -24.716   1.975  10.788  1.00  0.00    -0.019 A 
ATOM      2  C   UNL     1     -25.791   1.681   9.929  1.00  0.00    +0.010 A 
ATOM      3  C   UNL     1     -26.584   2.696   9.389  1.00  0.00    +0.047 A 
ATOM      4  C   UNL     1     -26.338   4.032   9.703  1.00  0.00    +0.118 A 
ATOM      5  C   UNL     1     -25.292   4.340  10.570  1.00  0.00    +0.047 A 
ATOM      6  C   UNL     1     -24.495   3.320  11.112  1.00  0.00    +0.010 A 
ENDROOT
BRANCH   1   7
ATOM      7  C   UNL     1     -23.904   0.827  11.366  1.00  0.00    +0.144 C 
BRANCH   7   8
ATOM      8  C   UNL     1     -22.440   0.678  10.912  1.00  0.00    +0.033 C 
ATOM      9  C   UNL     1     -22.203   0.968   9.434  1.00  0.00    +0.007 C 
ENDBRANCH   7   8
BRANCH   7  10
ATOM     10  O   UNL     1     -24.566  -0.416  11.116  1.00  0.00    -0.388 OA
ATOM     11  H   UNL     1     -23.881  -1.107  11.107  1.00  0.00    +0.211 HD
ENDBRANCH   7  10
ENDBRANCH   1   7
BRANCH   4  12
ATOM     12  O   UNL     1     -27.184   4.926   9.108  1.00  0.00    -0.497 OA
ATOM     13  C   UNL     1     -26.601   5.866   8.214  1.00  0.00    +0.278 C 
ENDBRANCH   4  12
TORSDOF 4
ENDMDL
MODEL 7
REMARK VINA RESULT:    -5.574      4.631      6.459
REMARK INTER + INTRA:          -6.878
REMARK INTER:                  -6.677
REMARK INTRA:                  -0.201
REMARK UNBOUND:                -0.163
REMARK SMILES CC[C@H](O)c1ccc(OC)cc1
REMARK SMILES IDX 5 1 6 2 7 3 8 4 11 5 12 6 3 7 2 8 1 9 4 10 9 12 10 13
REMARK H PARENT 4 11
ROOT
ATOM      1  C   UNL     1     -26.231   5.599   8.393  1.00  0.00    -0.019 A 
ATOM      2  C   UNL     1     -27.443   6.312   8.365  1.00  0.00    +0.010 A 
ATOM      3  C   UNL     1     -27.576   7.482   7.614  1.00  0.00    +0.047 A 
ATOM      4  C   UNL     1     -26.500   7.983   6.883  1.00  0.00    +0.118 A 
ATOM      5  C   UNL     1     -25.285   7.301   6.917  1.00  0.00    +0.047 A 
ATOM      6  C   UNL     1     -25.152   6.125   7.671  1.00  0.00    +0.010 A 
ENDROOT
BRANCH   1   7
ATOM      7  C   UNL     1     -26.137   4.345   9.248  1.00  0.00    +0.144 C 
BRANCH   7   8
ATOM      8  C   UNL     1     -27.173   3.231   9.013  1.00  0.00    +0.033 C 
ATOM      9  C   UNL     1     -27.944   2.810  10.261  1.00  0.00    +0.007 C 
ENDBRANCH   7   8
BRANCH   7  10
ATOM     10  O   UNL     1     -26.181   4.694  10.635  1.00  0.00    -0.388 OA
ATOM     11  H   UNL     1     -26.412   5.637  10.685  1.00  0.00    +0.211 HD
ENDBRANCH   7  10
ENDBRANCH   1   7
BRANCH   4  12
ATOM     12  O   UNL     1     -26.761   9.132   6.191  1.00  0.00    -0.497 OA
ATOM     13  C   UNL     1     -25.690  10.057   6.053  1.00  0.00    +0.278 C 
ENDBRANCH   4  12
TORSDOF 4
ENDMDL
MODEL 8
REMARK VINA RESULT:    -5.553      6.727     10.097
REMARK INTER + INTRA:          -6.853
REMARK INTER:                  -6.664
REMARK INTRA:                  -0.188
REMARK UNBOUND:                -0.163
REMARK SMILES CC[C@H](O)c1ccc(OC)cc1
REMARK SMILES IDX 5 1 6 2 7 3 8 4 11 5 12 6 3 7 2 8 1 9 4 10 9 12 10 13
REMARK H PARENT 4 11
ROOT
ATOM      1  C   UNL     1     -35.094   5.386   7.707  1.00  0.00    -0.019 A 
ATOM      2  C   UNL     1     -35.917   5.729   8.794  1.00  0.00    +0.010 A 
ATOM      3  C   UNL     1     -36.565   4.748   9.549  1.00  0.00    +0.047 A 
ATOM      4  C   UNL     1     -36.423   3.399   9.231  1.00  0.00    +0.118 A 
ATOM      5  C   UNL     1     -35.630   3.042   8.142  1.00  0.00    +0.047 A 
ATOM      6  C   UNL     1     -34.978   4.027   7.385  1.00  0.00    +0.010 A 
ENDROOT
BRANCH   1   7
ATOM      7  C   UNL     1     -34.435   6.498   6.907  1.00  0.00    +0.144 C 
BRANCH   7   8
ATOM      8  C   UNL     1     -33.013   6.256   6.368  1.00  0.00    +0.033 C 
ATOM      9  C   UNL     1     -32.618   7.152   5.199  1.00  0.00    +0.007 C 
ENDBRANCH   7   8
BRANCH   7  10
ATOM     10  O   UNL     1     -34.410   7.706   7.674  1.00  0.00    -0.388 OA
ATOM     11  H   UNL     1     -35.025   7.584   8.418  1.00  0.00    +0.211 HD
ENDBRANCH   7  10
ENDBRANCH   1   7
BRANCH   4  12
ATOM     12  O   UNL     1     -37.107   2.541  10.047  1.00  0.00    -0.497 OA
ATOM     13  C   UNL     1     -38.205   3.082  10.772  1.00  0.00    +0.278 C 
ENDBRANCH   4  12
TORSDOF 4
ENDMDL
MODEL 9
REMARK VINA RESULT:    -5.517      3.757      6.630
REMARK INTER + INTRA:          -6.809
REMARK INTER:                  -6.647
REMARK INTRA:                  -0.162
REMARK UNBOUND:                -0.163
REMARK SMILES CC[C@H](O)c1ccc(OC)cc1
REMARK SMILES IDX 5 1 6 2 7 3 8 4 11 5 12 6 3 7 2 8 1 9 4 10 9 12 10 13
REMARK H PARENT 4 11
ROOT
ATOM      1  C   UNL     1     -31.427   7.873   6.674  1.00  0.00    -0.019 A 
ATOM      2  C   UNL     1     -32.112   7.655   5.465  1.00  0.00    +0.010 A 
ATOM      3  C   UNL     1     -33.104   6.676   5.364  1.00  0.00    +0.047 A 
ATOM      4  C   UNL     1     -33.429   5.877   6.458  1.00  0.00    +0.118 A 
ATOM      5  C   UNL     1     -32.744   6.065   7.657  1.00  0.00    +0.047 A 
ATOM      6  C   UNL     1     -31.749   7.049   7.760  1.00  0.00    +0.010 A 
ENDROOT
BRANCH   1   7
ATOM      7  C   UNL     1     -30.340   8.935   6.718  1.00  0.00    +0.144 C 
BRANCH   7   8
ATOM      8  C   UNL     1     -28.945   8.521   7.221  1.00  0.00    +0.033 C 
ATOM      9  C   UNL     1     -27.961   9.676   7.380  1.00  0.00    +0.007 C 
ENDBRANCH   7   8
BRANCH   7  10
ATOM     10  O   UNL     1     -30.774  10.048   7.507  1.00  0.00    -0.388 OA
ATOM     11  H   UNL     1     -31.450  10.518   6.990  1.00  0.00    +0.211 HD
ENDBRANCH   7  10
ENDBRANCH   1   7
BRANCH   4  12
ATOM     12  O   UNL     1     -34.416   4.960   6.228  1.00  0.00    -0.497 OA
ATOM     13  C   UNL     1     -34.867   4.206   7.346  1.00  0.00    +0.278 C 
ENDBRANCH   4  12
TORSDOF 4
ENDMDL
