MODEL 1
REMARK VINA RESULT:    -9.079      0.000      0.000
REMARK INTER + INTRA:         -11.173
REMARK INTER:                 -10.672
REMARK INTRA:                  -0.501
REMARK UNBOUND:                -0.501
REMARK SMILES Cc1cc(C)c(CC(=O)c2ccccc2)c(C)c1
REMARK SMILES IDX 7 1 6 2 2 3 18 4 3 5 16 6 4 7 1 8 17 9 5 10 8 11 9 12 10 13
REMARK SMILES IDX 11 14 15 15 12 16 14 17 13 18
REMARK H PARENT
ROOT
ATOM      1  C   UNL     1     -30.215   8.466   7.565  1.00  0.00    +0.117 C 
ENDROOT
BRANCH   1   2
ATOM      2  C   UNL     1     -29.644   9.741   6.963  1.00  0.00    -0.034 A 
ATOM      3  C   UNL     1     -28.593  12.109   5.819  1.00  0.00    -0.051 A 
ATOM      4  C   UNL     1     -27.875  10.913   5.759  1.00  0.00    +0.007 A 
ATOM      5  C   UNL     1     -29.839  12.118   6.449  1.00  0.00    +0.007 A 
ATOM      6  C   UNL     1     -28.373   9.733   6.336  1.00  0.00    -0.047 A 
ATOM      7  C   UNL     1     -30.368  10.956   7.037  1.00  0.00    -0.047 A 
ATOM      8  C   UNL     1     -28.057  13.351   5.173  1.00  0.00    +0.044 C 
ATOM      9  C   UNL     1     -27.532   8.487   6.249  1.00  0.00    +0.044 C 
ATOM     10  C   UNL     1     -31.708  11.049   7.716  1.00  0.00    +0.044 C 
ENDBRANCH   1   2
BRANCH   1  11
ATOM     11  C   UNL     1     -31.267   7.779   6.708  1.00  0.00    +0.167 C 
ATOM     12  O   UNL     1     -31.421   8.011   5.511  1.00  0.00    -0.294 OA
BRANCH  11  13
ATOM     13  C   UNL     1     -32.159   6.767   7.359  1.00  0.00    +0.018 A 
ATOM     14  C   UNL     1     -31.709   6.138   8.530  1.00  0.00    +0.012 A 
ATOM     15  C   UNL     1     -33.418   6.427   6.846  1.00  0.00    +0.012 A 
ATOM     16  C   UNL     1     -32.501   5.188   9.175  1.00  0.00    +0.001 A 
ATOM     17  C   UNL     1     -34.209   5.475   7.495  1.00  0.00    +0.001 A 
ATOM     18  C   UNL     1     -33.751   4.857   8.657  1.00  0.00    +0.000 A 
ENDBRANCH  11  13
ENDBRANCH   1  11
TORSDOF 3
ENDMDL
MODEL 2
REMARK VINA RESULT:    -9.023      0.129      2.350
REMARK INTER + INTRA:         -11.106
REMARK INTER:                 -10.627
REMARK INTRA:                  -0.479
REMARK UNBOUND:                -0.501
REMARK SMILES Cc1cc(C)c(CC(=O)c2ccccc2)c(C)c1
REMARK SMILES IDX 7 1 6 2 2 3 18 4 3 5 16 6 4 7 1 8 17 9 5 10 8 11 9 12 10 13
REMARK SMILES IDX 11 14 15 15 12 16 14 17 13 18
REMARK H PARENT
ROOT
ATOM      1  C   UNL     1     -30.152   8.462   7.659  1.00  0.00    +0.117 C 
ENDROOT
BRANCH   1   2
ATOM      2  C   UNL     1     -29.619   9.726   7.003  1.00  0.00    -0.034 A 
ATOM      3  C   UNL     1     -28.616  12.088   5.803  1.00  0.00    -0.051 A 
ATOM      4  C   UNL     1     -29.853  12.092   6.451  1.00  0.00    +0.007 A 
ATOM      5  C   UNL     1     -27.881  10.902   5.759  1.00  0.00    +0.007 A 
ATOM      6  C   UNL     1     -30.374  10.925   7.036  1.00  0.00    -0.047 A 
ATOM      7  C   UNL     1     -28.371   9.717   6.334  1.00  0.00    -0.047 A 
ATOM      8  C   UNL     1     -28.065  13.349   5.208  1.00  0.00    +0.044 C 
ATOM      9  C   UNL     1     -31.724  11.002   7.699  1.00  0.00    +0.044 C 
ATOM     10  C   UNL     1     -27.529   8.473   6.228  1.00  0.00    +0.044 C 
ENDBRANCH   1   2
BRANCH   1  11
ATOM     11  C   UNL     1     -31.208   7.726   6.847  1.00  0.00    +0.167 C 
ATOM     12  O   UNL     1     -31.387   7.911   5.645  1.00  0.00    -0.294 OA
BRANCH  11  13
ATOM     13  C   UNL     1     -32.071   6.725   7.551  1.00  0.00    +0.018 A 
ATOM     14  C   UNL     1     -33.361   6.489   7.052  1.00  0.00    +0.012 A 
ATOM     15  C   UNL     1     -31.641   6.021   8.684  1.00  0.00    +0.012 A 
ATOM     16  C   UNL     1     -34.205   5.567   7.672  1.00  0.00    +0.001 A 
ATOM     17  C   UNL     1     -32.490   5.097   9.302  1.00  0.00    +0.001 A 
ATOM     18  C   UNL     1     -33.769   4.872   8.797  1.00  0.00    +0.000 A 
ENDBRANCH  11  13
ENDBRANCH   1  11
TORSDOF 3
ENDMDL
MODEL 3
REMARK VINA RESULT:    -8.880      1.268      6.746
REMARK INTER + INTRA:         -10.939
REMARK INTER:                 -10.460
REMARK INTRA:                  -0.479
REMARK UNBOUND:                -0.501
REMARK SMILES Cc1cc(C)c(CC(=O)c2ccccc2)c(C)c1
REMARK SMILES IDX 7 1 6 2 2 3 18 4 3 5 16 6 4 7 1 8 17 9 5 10 8 11 9 12 10 13
REMARK SMILES IDX 11 14 15 15 12 16 14 17 13 18
REMARK H PARENT
ROOT
ATOM      1  C   UNL     1     -31.791   7.494   6.238  1.00  0.00    +0.117 C 
ENDROOT
BRANCH   1   2
ATOM      2  C   UNL     1     -32.638   6.396   6.862  1.00  0.00    -0.034 A 
ATOM      3  C   UNL     1     -34.229   4.368   8.037  1.00  0.00    -0.051 A 
ATOM      4  C   UNL     1     -33.069   4.817   8.673  1.00  0.00    +0.007 A 
ATOM      5  C   UNL     1     -34.592   4.936   6.815  1.00  0.00    +0.007 A 
ATOM      6  C   UNL     1     -32.259   5.810   8.096  1.00  0.00    -0.047 A 
ATOM      7  C   UNL     1     -33.806   5.931   6.209  1.00  0.00    -0.047 A 
ATOM      8  C   UNL     1     -35.095   3.328   8.682  1.00  0.00    +0.044 C 
ATOM      9  C   UNL     1     -31.013   6.229   8.831  1.00  0.00    +0.044 C 
ATOM     10  C   UNL     1     -34.252   6.481   4.881  1.00  0.00    +0.044 C 
ENDBRANCH   1   2
BRANCH   1  11
ATOM     11  C   UNL     1     -31.905   8.846   6.925  1.00  0.00    +0.167 C 
ATOM     12  O   UNL     1     -32.850   9.161   7.646  1.00  0.00    -0.294 OA
BRANCH  11  13
ATOM     13  C   UNL     1     -30.808   9.843   6.711  1.00  0.00    +0.018 A 
ATOM     14  C   UNL     1     -29.480   9.406   6.825  1.00  0.00    +0.012 A 
ATOM     15  C   UNL     1     -31.058  11.188   6.404  1.00  0.00    +0.012 A 
ATOM     16  C   UNL     1     -28.421  10.295   6.636  1.00  0.00    +0.001 A 
ATOM     17  C   UNL     1     -29.994  12.075   6.214  1.00  0.00    +0.001 A 
ATOM     18  C   UNL     1     -28.679  11.630   6.330  1.00  0.00    +0.000 A 
ENDBRANCH  11  13
ENDBRANCH   1  11
TORSDOF 3
ENDMDL
MODEL 4
REMARK VINA RESULT:    -8.713      4.729      6.792
REMARK INTER + INTRA:         -10.743
REMARK INTER:                  -9.686
REMARK INTRA:                  -1.057
REMARK UNBOUND:                -0.501
REMARK SMILES Cc1cc(C)c(CC(=O)c2ccccc2)c(C)c1
REMARK SMILES IDX 7 1 6 2 2 3 18 4 3 5 16 6 4 7 1 8 17 9 5 10 8 11 9 12 10 13
REMARK SMILES IDX 11 14 15 15 12 16 14 17 13 18
REMARK H PARENT
ROOT
ATOM      1  C   UNL     1     -33.904   3.922   9.809  1.00  0.00    +0.117 C 
ENDROOT
BRANCH   1   2
ATOM      2  C   UNL     1     -33.699   4.691   8.512  1.00  0.00    -0.034 A 
ATOM      3  C   UNL     1     -33.334   6.140   6.107  1.00  0.00    -0.051 A 
ATOM      4  C   UNL     1     -34.357   5.196   6.217  1.00  0.00    +0.007 A 
ATOM      5  C   UNL     1     -32.497   6.360   7.201  1.00  0.00    +0.007 A 
ATOM      6  C   UNL     1     -34.541   4.456   7.397  1.00  0.00    -0.047 A 
ATOM      7  C   UNL     1     -32.652   5.638   8.397  1.00  0.00    -0.047 A 
ATOM      8  C   UNL     1     -33.170   6.940   4.849  1.00  0.00    +0.044 C 
ATOM      9  C   UNL     1     -35.653   3.440   7.435  1.00  0.00    +0.044 C 
ATOM     10  C   UNL     1     -31.698   5.917   9.527  1.00  0.00    +0.044 C 
ENDBRANCH   1   2
BRANCH   1  11
ATOM     11  C   UNL     1     -34.714   4.665  10.861  1.00  0.00    +0.167 C 
ATOM     12  O   UNL     1     -34.226   5.122  11.892  1.00  0.00    -0.294 OA
BRANCH  11  13
ATOM     13  C   UNL     1     -36.182   4.846  10.625  1.00  0.00    +0.018 A 
ATOM     14  C   UNL     1     -36.633   6.092  10.163  1.00  0.00    +0.012 A 
ATOM     15  C   UNL     1     -37.116   3.825  10.848  1.00  0.00    +0.012 A 
ATOM     16  C   UNL     1     -37.991   6.313   9.929  1.00  0.00    +0.001 A 
ATOM     17  C   UNL     1     -38.475   4.050  10.611  1.00  0.00    +0.001 A 
ATOM     18  C   UNL     1     -38.911   5.292  10.152  1.00  0.00    +0.000 A 
ENDBRANCH  11  13
ENDBRANCH   1  11
TORSDOF 3
ENDMDL
MODEL 5
REMARK VINA RESULT:    -8.683      2.779      5.526
REMARK INTER + INTRA:         -10.707
REMARK INTER:                 -10.073
REMARK INTRA:                  -0.635
REMARK UNBOUND:                -0.501
REMARK SMILES Cc1cc(C)c(CC(=O)c2ccccc2)c(C)c1
REMARK SMILES IDX 7 1 6 2 2 3 18 4 3 5 16 6 4 7 1 8 17 9 5 10 8 11 9 12 10 13
REMARK SMILES IDX 11 14 15 15 12 16 14 17 13 18
REMARK H PARENT
ROOT
ATOM      1  C   UNL     1     -34.381   4.879   7.495  1.00  0.00    +0.117 C 
ENDROOT
BRANCH   1   2
ATOM      2  C   UNL     1     -33.246   5.864   7.260  1.00  0.00    -0.034 A 
ATOM      3  C   UNL     1     -31.146   7.716   6.832  1.00  0.00    -0.051 A 
ATOM      4  C   UNL     1     -32.116   7.504   5.849  1.00  0.00    +0.007 A 
ATOM      5  C   UNL     1     -31.230   7.003   8.028  1.00  0.00    +0.007 A 
ATOM      6  C   UNL     1     -33.154   6.576   6.038  1.00  0.00    -0.047 A 
ATOM      7  C   UNL     1     -32.255   6.067   8.251  1.00  0.00    -0.047 A 
ATOM      8  C   UNL     1     -30.062   8.730   6.623  1.00  0.00    +0.044 C 
ATOM      9  C   UNL     1     -34.152   6.386   4.925  1.00  0.00    +0.044 C 
ATOM     10  C   UNL     1     -32.267   5.322   9.559  1.00  0.00    +0.044 C 
ENDBRANCH   1   2
BRANCH   1  11
ATOM     11  C   UNL     1     -35.547   5.440   8.295  1.00  0.00    +0.167 C 
ATOM     12  O   UNL     1     -35.905   6.614   8.237  1.00  0.00    -0.294 OA
BRANCH  11  13
ATOM     13  C   UNL     1     -36.296   4.509   9.199  1.00  0.00    +0.018 A 
ATOM     14  C   UNL     1     -37.635   4.805   9.497  1.00  0.00    +0.012 A 
ATOM     15  C   UNL     1     -35.713   3.363   9.756  1.00  0.00    +0.012 A 
ATOM     16  C   UNL     1     -38.377   3.971  10.334  1.00  0.00    +0.001 A 
ATOM     17  C   UNL     1     -36.460   2.530  10.594  1.00  0.00    +0.001 A 
ATOM     18  C   UNL     1     -37.789   2.833  10.882  1.00  0.00    +0.000 A 
ENDBRANCH  11  13
ENDBRANCH   1  11
TORSDOF 3
ENDMDL
MODEL 6
REMARK VINA RESULT:    -8.613      2.745      5.384
REMARK INTER + INTRA:         -10.625
REMARK INTER:                  -9.999
REMARK INTRA:                  -0.626
REMARK UNBOUND:                -0.501
REMARK SMILES Cc1cc(C)c(CC(=O)c2ccccc2)c(C)c1
REMARK SMILES IDX 7 1 6 2 2 3 18 4 3 5 16 6 4 7 1 8 17 9 5 10 8 11 9 12 10 13
REMARK SMILES IDX 11 14 15 15 12 16 14 17 13 18
REMARK H PARENT
ROOT
ATOM      1  C   UNL     1     -34.371   4.892   7.461  1.00  0.00    +0.117 C 
ENDROOT
BRANCH   1   2
ATOM      2  C   UNL     1     -33.225   5.870   7.254  1.00  0.00    -0.034 A 
ATOM      3  C   UNL     1     -31.078   7.674   6.859  1.00  0.00    -0.051 A 
ATOM      4  C   UNL     1     -31.189   6.953   8.050  1.00  0.00    +0.007 A 
ATOM      5  C   UNL     1     -32.041   7.489   5.866  1.00  0.00    +0.007 A 
ATOM      6  C   UNL     1     -32.258   6.068   8.270  1.00  0.00    -0.047 A 
ATOM      7  C   UNL     1     -33.122   6.611   6.051  1.00  0.00    -0.047 A 
ATOM      8  C   UNL     1     -29.916   8.594   6.633  1.00  0.00    +0.044 C 
ATOM      9  C   UNL     1     -32.322   5.341   9.588  1.00  0.00    +0.044 C 
ATOM     10  C   UNL     1     -34.131   6.480   4.942  1.00  0.00    +0.044 C 
ENDBRANCH   1   2
BRANCH   1  11
ATOM     11  C   UNL     1     -35.538   5.446   8.265  1.00  0.00    +0.167 C 
ATOM     12  O   UNL     1     -35.888   6.624   8.224  1.00  0.00    -0.294 OA
BRANCH  11  13
ATOM     13  C   UNL     1     -36.298   4.506   9.149  1.00  0.00    +0.018 A 
ATOM     14  C   UNL     1     -35.827   3.192   9.284  1.00  0.00    +0.012 A 
ATOM     15  C   UNL     1     -37.455   4.888   9.842  1.00  0.00    +0.012 A 
ATOM     16  C   UNL     1     -36.499   2.276  10.094  1.00  0.00    +0.001 A 
ATOM     17  C   UNL     1     -38.125   3.968  10.653  1.00  0.00    +0.001 A 
ATOM     18  C   UNL     1     -37.647   2.665  10.779  1.00  0.00    +0.000 A 
ENDBRANCH  11  13
ENDBRANCH   1  11
TORSDOF 3
ENDMDL
MODEL 7
REMARK VINA RESULT:    -8.331      4.575      6.584
REMARK INTER + INTRA:         -10.294
REMARK INTER:                  -9.505
REMARK INTRA:                  -0.789
REMARK UNBOUND:                -0.501
REMARK SMILES Cc1cc(C)c(CC(=O)c2ccccc2)c(C)c1
REMARK SMILES IDX 7 1 6 2 2 3 18 4 3 5 16 6 4 7 1 8 17 9 5 10 8 11 9 12 10 13
REMARK SMILES IDX 11 14 15 15 12 16 14 17 13 18
REMARK H PARENT
ROOT
ATOM      1  C   UNL     1     -33.573   3.881   9.635  1.00  0.00    +0.117 C 
ENDROOT
BRANCH   1   2
ATOM      2  C   UNL     1     -33.480   4.745   8.387  1.00  0.00    -0.034 A 
ATOM      3  C   UNL     1     -33.290   6.336   6.052  1.00  0.00    -0.051 A 
ATOM      4  C   UNL     1     -32.395   6.517   7.108  1.00  0.00    +0.007 A 
ATOM      5  C   UNL     1     -34.278   5.357   6.165  1.00  0.00    +0.007 A 
ATOM      6  C   UNL     1     -32.485   5.748   8.280  1.00  0.00    -0.047 A 
ATOM      7  C   UNL     1     -34.398   4.570   7.322  1.00  0.00    -0.047 A 
ATOM      8  C   UNL     1     -33.161   7.148   4.797  1.00  0.00    +0.044 C 
ATOM      9  C   UNL     1     -31.496   6.014   9.385  1.00  0.00    +0.044 C 
ATOM     10  C   UNL     1     -35.502   3.548   7.378  1.00  0.00    +0.044 C 
ENDBRANCH   1   2
BRANCH   1  11
ATOM     11  C   UNL     1     -34.352   4.509  10.780  1.00  0.00    +0.167 C 
ATOM     12  O   UNL     1     -33.831   5.191  11.660  1.00  0.00    -0.294 OA
BRANCH  11  13
ATOM     13  C   UNL     1     -35.832   4.284  10.836  1.00  0.00    +0.018 A 
ATOM     14  C   UNL     1     -36.309   2.968  10.744  1.00  0.00    +0.012 A 
ATOM     15  C   UNL     1     -36.752   5.333  10.973  1.00  0.00    +0.012 A 
ATOM     16  C   UNL     1     -37.679   2.704  10.789  1.00  0.00    +0.001 A 
ATOM     17  C   UNL     1     -38.123   5.064  11.019  1.00  0.00    +0.001 A 
ATOM     18  C   UNL     1     -38.585   3.753  10.927  1.00  0.00    +0.000 A 
ENDBRANCH  11  13
ENDBRANCH   1  11
TORSDOF 3
ENDMDL
MODEL 8
REMARK VINA RESULT:    -8.169      4.723      8.408
REMARK INTER + INTRA:         -10.103
REMARK INTER:                  -9.023
REMARK INTRA:                  -1.080
REMARK UNBOUND:                -0.501
REMARK SMILES Cc1cc(C)c(CC(=O)c2ccccc2)c(C)c1
REMARK SMILES IDX 7 1 6 2 2 3 18 4 3 5 16 6 4 7 1 8 17 9 5 10 8 11 9 12 10 13
REMARK SMILES IDX 11 14 15 15 12 16 14 17 13 18
REMARK H PARENT
ROOT
ATOM      1  C   UNL     1     -33.831   2.796  10.946  1.00  0.00    +0.117 C 
ENDROOT
BRANCH   1   2
ATOM      2  C   UNL     1     -35.118   3.599  10.835  1.00  0.00    -0.034 A 
ATOM      3  C   UNL     1     -37.506   5.105  10.608  1.00  0.00    -0.051 A 
ATOM      4  C   UNL     1     -36.381   5.650  11.229  1.00  0.00    +0.007 A 
ATOM      5  C   UNL     1     -37.434   3.807  10.099  1.00  0.00    +0.007 A 
ATOM      6  C   UNL     1     -35.194   4.911  11.366  1.00  0.00    -0.047 A 
ATOM      7  C   UNL     1     -36.264   3.040  10.218  1.00  0.00    -0.047 A 
ATOM      8  C   UNL     1     -38.755   5.919  10.446  1.00  0.00    +0.044 C 
ATOM      9  C   UNL     1     -34.028   5.559  12.065  1.00  0.00    +0.044 C 
ATOM     10  C   UNL     1     -36.269   1.641   9.662  1.00  0.00    +0.044 C 
ENDBRANCH   1   2
BRANCH   1  11
ATOM     11  C   UNL     1     -32.955   2.834   9.702  1.00  0.00    +0.167 C 
ATOM     12  O   UNL     1     -32.289   1.877   9.316  1.00  0.00    -0.294 OA
BRANCH  11  13
ATOM     13  C   UNL     1     -32.906   4.104   8.911  1.00  0.00    +0.018 A 
ATOM     14  C   UNL     1     -31.856   5.002   9.157  1.00  0.00    +0.012 A 
ATOM     15  C   UNL     1     -33.864   4.428   7.940  1.00  0.00    +0.012 A 
ATOM     16  C   UNL     1     -31.765   6.200   8.447  1.00  0.00    +0.001 A 
ATOM     17  C   UNL     1     -33.769   5.629   7.231  1.00  0.00    +0.001 A 
ATOM     18  C   UNL     1     -32.722   6.513   7.484  1.00  0.00    +0.000 A 
ENDBRANCH  11  13
ENDBRANCH   1  11
TORSDOF 3
ENDMDL
MODEL 9
REMARK VINA RESULT:    -8.066      3.665      8.982
REMARK INTER + INTRA:          -9.982
REMARK INTER:                  -9.445
REMARK INTRA:                  -0.537
REMARK UNBOUND:                -0.501
REMARK SMILES Cc1cc(C)c(CC(=O)c2ccccc2)c(C)c1
REMARK SMILES IDX 7 1 6 2 2 3 18 4 3 5 16 6 4 7 1 8 17 9 5 10 8 11 9 12 10 13
REMARK SMILES IDX 11 14 15 15 12 16 14 17 13 18
REMARK H PARENT
ROOT
ATOM      1  C   UNL     1     -34.348   4.679   9.172  1.00  0.00    +0.117 C 
ENDROOT
BRANCH   1   2
ATOM      2  C   UNL     1     -35.539   3.958   9.784  1.00  0.00    -0.034 A 
ATOM      3  C   UNL     1     -37.767   2.612  10.902  1.00  0.00    -0.051 A 
ATOM      4  C   UNL     1     -37.798   3.994  10.707  1.00  0.00    +0.007 A 
ATOM      5  C   UNL     1     -36.621   1.904  10.535  1.00  0.00    +0.007 A 
ATOM      6  C   UNL     1     -36.696   4.680  10.170  1.00  0.00    -0.047 A 
ATOM      7  C   UNL     1     -35.500   2.558   9.995  1.00  0.00    -0.047 A 
ATOM      8  C   UNL     1     -38.964   1.894  11.450  1.00  0.00    +0.044 C 
ATOM      9  C   UNL     1     -36.796   6.174  10.008  1.00  0.00    +0.044 C 
ATOM     10  C   UNL     1     -34.294   1.729   9.642  1.00  0.00    +0.044 C 
ENDBRANCH   1   2
BRANCH   1  11
ATOM     11  C   UNL     1     -34.367   4.750   7.652  1.00  0.00    +0.167 C 
ATOM     12  O   UNL     1     -35.043   4.002   6.949  1.00  0.00    -0.294 OA
BRANCH  11  13
ATOM     13  C   UNL     1     -33.518   5.786   6.982  1.00  0.00    +0.018 A 
ATOM     14  C   UNL     1     -32.541   6.441   7.747  1.00  0.00    +0.012 A 
ATOM     15  C   UNL     1     -33.664   6.124   5.630  1.00  0.00    +0.012 A 
ATOM     16  C   UNL     1     -31.724   7.416   7.171  1.00  0.00    +0.001 A 
ATOM     17  C   UNL     1     -32.843   7.100   5.057  1.00  0.00    +0.001 A 
ATOM     18  C   UNL     1     -31.876   7.744   5.825  1.00  0.00    +0.000 A 
ENDBRANCH  11  13
ENDBRANCH   1  11
TORSDOF 3
ENDMDL
