REMARK SMILES Cc1n[nH]c(C(=O)O)c1[N+](=O)[O-]
REMARK SMILES IDX 1 1 2 2 3 3 4 4 5 5 9 6 10 8 11 9 12 10 6 11 7 12 8 13
REMARK H PARENT 4 7 8 14
ROOT
ATOM      1  C   UNL     1       2.670  -0.412  -0.189  1.00  0.00    +0.076 C 
ATOM      2  C   UNL     1       1.192  -0.552  -0.153  1.00  0.00    +0.138 A 
ATOM      3  N   UNL     1       0.622  -1.749  -0.353  1.00  0.00    -0.173 NA
ATOM      4  N   UNL     1      -0.695  -1.506  -0.240  1.00  0.00    -0.265 N 
ATOM      5  C   UNL     1      -1.007  -0.195  -0.005  1.00  0.00    +0.222 A 
ATOM      6  C   UNL     1       0.215   0.443   0.090  1.00  0.00    +0.324 A 
ATOM      7  H   UNL     1      -1.347  -2.278  -0.354  1.00  0.00    +0.191 HD
ENDROOT
BRANCH   6   8
ATOM      8  N   UNL     1       0.443   1.821   0.381  1.00  0.00    +0.067 N 
ATOM      9  O   UNL     1      -0.161   2.295   1.350  1.00  0.00    -0.258 OA
ATOM     10  O   UNL     1       1.265   2.408  -0.331  1.00  0.00    -0.258 OA
ENDBRANCH   6   8
BRANCH   5  11
ATOM     11  C   UNL     1      -2.336   0.309   0.076  1.00  0.00    +0.361 C 
ATOM     12  O   UNL     1      -2.706   1.469   0.108  1.00  0.00    -0.244 OA
BRANCH  11  13
ATOM     13  O   UNL     1      -3.232  -0.700   0.077  1.00  0.00    -0.476 OA
ATOM     14  H   UNL     1      -4.092  -0.229   0.138  1.00  0.00    +0.297 HD
ENDBRANCH  11  13
ENDBRANCH   5  11
TORSDOF 3
