MODEL 1
REMARK VINA RESULT:    -6.443      0.000      0.000
REMARK INTER + INTRA:          -7.226
REMARK INTER:                  -7.196
REMARK INTRA:                  -0.030
REMARK UNBOUND:                -0.030
REMARK SMILES NP(N)(=O)c1ccccc1
REMARK SMILES IDX 2 1 4 2 1 3 3 6 5 9 6 10 10 11 7 12 9 13 8 14
REMARK H PARENT 1 4 1 5 3 7 3 8
ROOT
ATOM      1  P   UNL     1     -26.279   9.994   5.834  1.00  0.00    +0.235 P 
ATOM      2  O   UNL     1     -26.228   8.976   4.737  1.00  0.00    -0.284 OA
ENDROOT
BRANCH   1   3
ATOM      3  N   UNL     1     -25.681   9.431   7.247  1.00  0.00    -0.265 NA
ATOM      4  H   UNL     1     -25.925   8.459   7.399  1.00  0.00    +0.128 HD
ATOM      5  H   UNL     1     -26.023   9.942   8.051  1.00  0.00    +0.128 HD
ENDBRANCH   1   3
BRANCH   1   6
ATOM      6  N   UNL     1     -25.241  11.231   5.565  1.00  0.00    -0.265 NA
ATOM      7  H   UNL     1     -25.293  11.495   4.586  1.00  0.00    +0.128 HD
ATOM      8  H   UNL     1     -25.544  12.060   6.068  1.00  0.00    +0.128 HD
ENDBRANCH   1   6
BRANCH   1   9
ATOM      9  C   UNL     1     -27.872  10.678   6.191  1.00  0.00    +0.040 A 
ATOM     10  C   UNL     1     -28.245  11.909   5.633  1.00  0.00    +0.014 A 
ATOM     11  C   UNL     1     -28.792  10.010   7.016  1.00  0.00    +0.014 A 
ATOM     12  C   UNL     1     -29.501  12.460   5.891  1.00  0.00    +0.001 A 
ATOM     13  C   UNL     1     -30.048  10.560   7.275  1.00  0.00    +0.001 A 
ATOM     14  C   UNL     1     -30.401  11.785   6.711  1.00  0.00    +0.000 A 
ENDBRANCH   1   9
TORSDOF 3
ENDMDL
MODEL 2
REMARK VINA RESULT:    -6.376      0.272      1.544
REMARK INTER + INTRA:          -7.151
REMARK INTER:                  -7.121
REMARK INTRA:                  -0.030
REMARK UNBOUND:                -0.030
REMARK SMILES NP(N)(=O)c1ccccc1
REMARK SMILES IDX 2 1 4 2 1 3 3 6 5 9 6 10 10 11 7 12 9 13 8 14
REMARK H PARENT 1 4 1 5 3 7 3 8
ROOT
ATOM      1  P   UNL     1     -26.338  10.004   5.794  1.00  0.00    +0.235 P 
ATOM      2  O   UNL     1     -26.230   8.982   4.706  1.00  0.00    -0.284 OA
ENDROOT
BRANCH   1   3
ATOM      3  N   UNL     1     -25.659   9.510   7.197  1.00  0.00    -0.265 NA
ATOM      4  H   UNL     1     -25.579  10.269   7.864  1.00  0.00    +0.128 HD
ATOM      5  H   UNL     1     -24.727   9.136   7.073  1.00  0.00    +0.128 HD
ENDBRANCH   1   3
BRANCH   1   6
ATOM      6  N   UNL     1     -25.416  11.321   5.487  1.00  0.00    -0.265 NA
ATOM      7  H   UNL     1     -25.952  11.970   4.920  1.00  0.00    +0.128 HD
ATOM      8  H   UNL     1     -25.229  11.828   6.347  1.00  0.00    +0.128 HD
ENDBRANCH   1   6
BRANCH   1   9
ATOM      9  C   UNL     1     -27.974  10.555   6.187  1.00  0.00    +0.040 A 
ATOM     10  C   UNL     1     -28.821   9.741   6.952  1.00  0.00    +0.014 A 
ATOM     11  C   UNL     1     -28.451  11.806   5.762  1.00  0.00    +0.014 A 
ATOM     12  C   UNL     1     -30.110  10.162   7.284  1.00  0.00    +0.001 A 
ATOM     13  C   UNL     1     -29.740  12.228   6.093  1.00  0.00    +0.001 A 
ATOM     14  C   UNL     1     -30.567  11.405   6.855  1.00  0.00    +0.000 A 
ENDBRANCH   1   9
TORSDOF 3
ENDMDL
MODEL 3
REMARK VINA RESULT:    -5.736      4.856      5.420
REMARK INTER + INTRA:          -6.437
REMARK INTER:                  -6.407
REMARK INTRA:                  -0.030
REMARK UNBOUND:                -0.030
REMARK SMILES NP(N)(=O)c1ccccc1
REMARK SMILES IDX 2 1 4 2 1 3 3 6 5 9 6 10 10 11 7 12 9 13 8 14
REMARK H PARENT 1 4 1 5 3 7 3 8
ROOT
ATOM      1  P   UNL     1     -32.523   7.561   7.220  1.00  0.00    +0.235 P 
ATOM      2  O   UNL     1     -32.495   6.796   5.934  1.00  0.00    -0.284 OA
ENDROOT
BRANCH   1   3
ATOM      3  N   UNL     1     -34.031   8.024   7.649  1.00  0.00    -0.265 NA
ATOM      4  H   UNL     1     -34.015   8.774   8.331  1.00  0.00    +0.128 HD
ATOM      5  H   UNL     1     -34.571   7.273   8.061  1.00  0.00    +0.128 HD
ENDBRANCH   1   3
BRANCH   1   6
ATOM      6  N   UNL     1     -32.147   6.613   8.501  1.00  0.00    -0.265 NA
ATOM      7  H   UNL     1     -32.108   7.190   9.335  1.00  0.00    +0.128 HD
ATOM      8  H   UNL     1     -32.898   5.953   8.683  1.00  0.00    +0.128 HD
ENDBRANCH   1   6
BRANCH   1   9
ATOM      9  C   UNL     1     -31.507   9.009   7.290  1.00  0.00    +0.040 A 
ATOM     10  C   UNL     1     -30.171   8.947   6.865  1.00  0.00    +0.014 A 
ATOM     11  C   UNL     1     -32.007  10.238   7.750  1.00  0.00    +0.014 A 
ATOM     12  C   UNL     1     -29.357  10.080   6.899  1.00  0.00    +0.001 A 
ATOM     13  C   UNL     1     -31.193  11.372   7.784  1.00  0.00    +0.001 A 
ATOM     14  C   UNL     1     -29.869  11.291   7.357  1.00  0.00    +0.000 A 
ENDBRANCH   1   9
TORSDOF 3
ENDMDL
MODEL 4
REMARK VINA RESULT:    -5.610      3.451      4.588
REMARK INTER + INTRA:          -6.295
REMARK INTER:                  -6.267
REMARK INTRA:                  -0.028
REMARK UNBOUND:                -0.030
REMARK SMILES NP(N)(=O)c1ccccc1
REMARK SMILES IDX 2 1 4 2 1 3 3 6 5 9 6 10 10 11 7 12 9 13 8 14
REMARK H PARENT 1 4 1 5 3 7 3 8
ROOT
ATOM      1  P   UNL     1     -26.687   9.560   5.971  1.00  0.00    +0.235 P 
ATOM      2  O   UNL     1     -27.788  10.505   6.339  1.00  0.00    -0.284 OA
ENDROOT
BRANCH   1   3
ATOM      3  N   UNL     1     -26.682   9.182   4.381  1.00  0.00    -0.265 NA
ATOM      4  H   UNL     1     -25.984   9.712   3.870  1.00  0.00    +0.128 HD
ATOM      5  H   UNL     1     -27.569   9.366   3.930  1.00  0.00    +0.128 HD
ENDBRANCH   1   3
BRANCH   1   6
ATOM      6  N   UNL     1     -25.214  10.265   6.094  1.00  0.00    -0.265 NA
ATOM      7  H   UNL     1     -25.035  10.798   5.250  1.00  0.00    +0.128 HD
ATOM      8  H   UNL     1     -25.216  10.957   6.837  1.00  0.00    +0.128 HD
ENDBRANCH   1   6
BRANCH   1   9
ATOM      9  C   UNL     1     -26.642   8.030   6.859  1.00  0.00    +0.040 A 
ATOM     10  C   UNL     1     -27.755   7.626   7.611  1.00  0.00    +0.014 A 
ATOM     11  C   UNL     1     -25.518   7.189   6.821  1.00  0.00    +0.014 A 
ATOM     12  C   UNL     1     -27.746   6.416   8.308  1.00  0.00    +0.001 A 
ATOM     13  C   UNL     1     -25.508   5.979   7.517  1.00  0.00    +0.001 A 
ATOM     14  C   UNL     1     -26.623   5.594   8.259  1.00  0.00    +0.000 A 
ENDBRANCH   1   9
TORSDOF 3
ENDMDL
MODEL 5
REMARK VINA RESULT:    -5.248      7.506      8.229
REMARK INTER + INTRA:          -5.891
REMARK INTER:                  -5.863
REMARK INTRA:                  -0.028
REMARK UNBOUND:                -0.030
REMARK SMILES NP(N)(=O)c1ccccc1
REMARK SMILES IDX 2 1 4 2 1 3 3 6 5 9 6 10 10 11 7 12 9 13 8 14
REMARK H PARENT 1 4 1 5 3 7 3 8
ROOT
ATOM      1  P   UNL     1     -34.698   5.476   8.276  1.00  0.00    +0.235 P 
ATOM      2  O   UNL     1     -35.330   4.184   7.862  1.00  0.00    -0.284 OA
ENDROOT
BRANCH   1   3
ATOM      3  N   UNL     1     -35.789   6.576   8.799  1.00  0.00    -0.265 NA
ATOM      4  H   UNL     1     -36.116   6.366   9.735  1.00  0.00    +0.128 HD
ATOM      5  H   UNL     1     -36.611   6.625   8.211  1.00  0.00    +0.128 HD
ENDBRANCH   1   3
BRANCH   1   6
ATOM      6  N   UNL     1     -33.800   5.306   9.635  1.00  0.00    -0.265 NA
ATOM      7  H   UNL     1     -32.825   5.205   9.372  1.00  0.00    +0.128 HD
ATOM      8  H   UNL     1     -33.828   6.160  10.184  1.00  0.00    +0.128 HD
ENDBRANCH   1   6
BRANCH   1   9
ATOM      9  C   UNL     1     -33.704   6.285   7.056  1.00  0.00    +0.040 A 
ATOM     10  C   UNL     1     -34.036   6.174   5.697  1.00  0.00    +0.014 A 
ATOM     11  C   UNL     1     -32.585   7.057   7.410  1.00  0.00    +0.014 A 
ATOM     12  C   UNL     1     -33.273   6.815   4.720  1.00  0.00    +0.001 A 
ATOM     13  C   UNL     1     -31.822   7.698   6.434  1.00  0.00    +0.001 A 
ATOM     14  C   UNL     1     -32.168   7.577   5.089  1.00  0.00    +0.000 A 
ENDBRANCH   1   9
TORSDOF 3
ENDMDL
MODEL 6
REMARK VINA RESULT:    -5.158     13.321     14.265
REMARK INTER + INTRA:          -5.791
REMARK INTER:                  -5.761
REMARK INTRA:                  -0.030
REMARK UNBOUND:                -0.030
REMARK SMILES NP(N)(=O)c1ccccc1
REMARK SMILES IDX 2 1 4 2 1 3 3 6 5 9 6 10 10 11 7 12 9 13 8 14
REMARK H PARENT 1 4 1 5 3 7 3 8
ROOT
ATOM      1  P   UNL     1     -29.074  -0.092  15.848  1.00  0.00    +0.235 P 
ATOM      2  O   UNL     1     -27.604  -0.243  15.611  1.00  0.00    -0.284 OA
ENDROOT
BRANCH   1   3
ATOM      3  N   UNL     1     -29.633  -1.086  17.019  1.00  0.00    -0.265 NA
ATOM      4  H   UNL     1     -30.350  -0.641  17.581  1.00  0.00    +0.128 HD
ATOM      5  H   UNL     1     -28.909  -1.385  17.661  1.00  0.00    +0.128 HD
ENDBRANCH   1   3
BRANCH   1   6
ATOM      6  N   UNL     1     -29.437   1.358  16.517  1.00  0.00    -0.265 NA
ATOM      7  H   UNL     1     -30.408   1.348  16.812  1.00  0.00    +0.128 HD
ATOM      8  H   UNL     1     -28.911   1.490  17.376  1.00  0.00    +0.128 HD
ENDBRANCH   1   6
BRANCH   1   9
ATOM      9  C   UNL     1     -30.120  -0.326  14.440  1.00  0.00    +0.040 A 
ATOM     10  C   UNL     1     -30.425  -1.624  14.003  1.00  0.00    +0.014 A 
ATOM     11  C   UNL     1     -30.673   0.762  13.744  1.00  0.00    +0.014 A 
ATOM     12  C   UNL     1     -31.258  -1.831  12.903  1.00  0.00    +0.001 A 
ATOM     13  C   UNL     1     -31.506   0.556  12.643  1.00  0.00    +0.001 A 
ATOM     14  C   UNL     1     -31.799  -0.741  12.225  1.00  0.00    +0.000 A 
ENDBRANCH   1   9
TORSDOF 3
ENDMDL
MODEL 7
REMARK VINA RESULT:    -5.149     10.748     11.038
REMARK INTER + INTRA:          -5.781
REMARK INTER:                  -5.752
REMARK INTRA:                  -0.029
REMARK UNBOUND:                -0.030
REMARK SMILES NP(N)(=O)c1ccccc1
REMARK SMILES IDX 2 1 4 2 1 3 3 6 5 9 6 10 10 11 7 12 9 13 8 14
REMARK H PARENT 1 4 1 5 3 7 3 8
ROOT
ATOM      1  P   UNL     1     -34.815   2.665   8.621  1.00  0.00    +0.235 P 
ATOM      2  O   UNL     1     -33.398   2.405   9.027  1.00  0.00    -0.284 OA
ENDROOT
BRANCH   1   3
ATOM      3  N   UNL     1     -34.981   2.891   7.010  1.00  0.00    -0.265 NA
ATOM      4  H   UNL     1     -35.880   3.298   6.778  1.00  0.00    +0.128 HD
ATOM      5  H   UNL     1     -34.910   2.031   6.482  1.00  0.00    +0.128 HD
ENDBRANCH   1   3
BRANCH   1   6
ATOM      6  N   UNL     1     -35.757   1.340   8.814  1.00  0.00    -0.265 NA
ATOM      7  H   UNL     1     -36.060   1.018   7.901  1.00  0.00    +0.128 HD
ATOM      8  H   UNL     1     -35.209   0.570   9.187  1.00  0.00    +0.128 HD
ENDBRANCH   1   6
BRANCH   1   9
ATOM      9  C   UNL     1     -35.615   4.031   9.412  1.00  0.00    +0.040 A 
ATOM     10  C   UNL     1     -35.251   4.394  10.717  1.00  0.00    +0.014 A 
ATOM     11  C   UNL     1     -36.607   4.781   8.760  1.00  0.00    +0.014 A 
ATOM     12  C   UNL     1     -35.860   5.476  11.354  1.00  0.00    +0.001 A 
ATOM     13  C   UNL     1     -37.217   5.863   9.397  1.00  0.00    +0.001 A 
ATOM     14  C   UNL     1     -36.842   6.210  10.693  1.00  0.00    +0.000 A 
ENDBRANCH   1   9
TORSDOF 3
ENDMDL
MODEL 8
REMARK VINA RESULT:    -5.107      9.969     10.791
REMARK INTER + INTRA:          -5.734
REMARK INTER:                  -5.704
REMARK INTRA:                  -0.030
REMARK UNBOUND:                -0.030
REMARK SMILES NP(N)(=O)c1ccccc1
REMARK SMILES IDX 2 1 4 2 1 3 3 6 5 9 6 10 10 11 7 12 9 13 8 14
REMARK H PARENT 1 4 1 5 3 7 3 8
ROOT
ATOM      1  P   UNL     1     -34.948   5.446   8.191  1.00  0.00    +0.235 P 
ATOM      2  O   UNL     1     -34.715   4.534   7.027  1.00  0.00    -0.284 OA
ENDROOT
BRANCH   1   3
ATOM      3  N   UNL     1     -33.662   5.529   9.197  1.00  0.00    -0.265 NA
ATOM      4  H   UNL     1     -33.356   4.609   9.494  1.00  0.00    +0.128 HD
ATOM      5  H   UNL     1     -33.854   6.054  10.040  1.00  0.00    +0.128 HD
ENDBRANCH   1   3
BRANCH   1   6
ATOM      6  N   UNL     1     -35.041   7.014   7.728  1.00  0.00    -0.265 NA
ATOM      7  H   UNL     1     -35.883   7.141   7.174  1.00  0.00    +0.128 HD
ATOM      8  H   UNL     1     -35.176   7.612   8.537  1.00  0.00    +0.128 HD
ENDBRANCH   1   6
BRANCH   1   9
ATOM      9  C   UNL     1     -36.358   5.083   9.197  1.00  0.00    +0.040 A 
ATOM     10  C   UNL     1     -36.324   3.995  10.082  1.00  0.00    +0.014 A 
ATOM     11  C   UNL     1     -37.520   5.870   9.147  1.00  0.00    +0.014 A 
ATOM     12  C   UNL     1     -37.420   3.700  10.894  1.00  0.00    +0.001 A 
ATOM     13  C   UNL     1     -38.617   5.575   9.959  1.00  0.00    +0.001 A 
ATOM     14  C   UNL     1     -38.565   4.490  10.832  1.00  0.00    +0.000 A 
ENDBRANCH   1   9
TORSDOF 3
ENDMDL
MODEL 9
REMARK VINA RESULT:    -5.103     10.101     10.914
REMARK INTER + INTRA:          -5.730
REMARK INTER:                  -5.701
REMARK INTRA:                  -0.028
REMARK UNBOUND:                -0.030
REMARK SMILES NP(N)(=O)c1ccccc1
REMARK SMILES IDX 2 1 4 2 1 3 3 6 5 9 6 10 10 11 7 12 9 13 8 14
REMARK H PARENT 1 4 1 5 3 7 3 8
ROOT
ATOM      1  P   UNL     1     -23.580   0.367  10.369  1.00  0.00    +0.235 P 
ATOM      2  O   UNL     1     -24.222  -0.948  10.056  1.00  0.00    -0.284 OA
ENDROOT
BRANCH   1   3
ATOM      3  N   UNL     1     -22.338   0.231  11.423  1.00  0.00    -0.265 NA
ATOM      4  H   UNL     1     -21.746   1.053  11.416  1.00  0.00    +0.128 HD
ATOM      5  H   UNL     1     -21.736  -0.558  11.223  1.00  0.00    +0.128 HD
ENDBRANCH   1   3
BRANCH   1   6
ATOM      6  N   UNL     1     -22.782   0.979   9.076  1.00  0.00    -0.265 NA
ATOM      7  H   UNL     1     -21.784   0.884   9.233  1.00  0.00    +0.128 HD
ATOM      8  H   UNL     1     -22.965   0.415   8.251  1.00  0.00    +0.128 HD
ENDBRANCH   1   6
BRANCH   1   9
ATOM      9  C   UNL     1     -24.649   1.627  11.003  1.00  0.00    +0.040 A 
ATOM     10  C   UNL     1     -25.788   1.271  11.741  1.00  0.00    +0.014 A 
ATOM     11  C   UNL     1     -24.383   2.991  10.799  1.00  0.00    +0.014 A 
ATOM     12  C   UNL     1     -26.637   2.248  12.261  1.00  0.00    +0.001 A 
ATOM     13  C   UNL     1     -25.232   3.969  11.319  1.00  0.00    +0.001 A 
ATOM     14  C   UNL     1     -26.358   3.596  12.050  1.00  0.00    +0.000 A 
ENDBRANCH   1   9
TORSDOF 3
ENDMDL
