MODEL 1
REMARK VINA RESULT:    -3.884      0.000      0.000
REMARK INTER + INTRA:          -4.729
REMARK INTER:                  -4.678
REMARK INTRA:                  -0.050
REMARK UNBOUND:                -0.050
REMARK SMILES CN(C)CCCN
REMARK SMILES IDX 5 1 4 2 2 3 1 4 3 5 6 6 7 7
REMARK H PARENT 7 8 7 9
ROOT
ATOM      1  C   UNL     1     -28.068  11.341   5.954  1.00  0.00    +0.030 C 
ENDROOT
BRANCH   1   2
ATOM      2  C   UNL     1     -26.670  11.352   5.320  1.00  0.00    +0.085 C 
BRANCH   2   3
ATOM      3  N   UNL     1     -26.069  10.004   5.242  1.00  0.00    -0.309 NA
ATOM      4  C   UNL     1     -25.345   9.713   6.482  1.00  0.00    +0.104 C 
ATOM      5  C   UNL     1     -27.079   8.970   5.010  1.00  0.00    +0.104 C 
ENDBRANCH   2   3
ENDBRANCH   1   2
BRANCH   1   6
ATOM      6  C   UNL     1     -28.911  12.547   5.536  1.00  0.00    +0.079 C 
BRANCH   6   7
ATOM      7  N   UNL     1     -28.124  13.547   4.821  1.00  0.00    -0.330 NA
ATOM      8  H   UNL     1     -27.572  14.086   5.488  1.00  0.00    +0.118 HD
ATOM      9  H   UNL     1     -28.755  14.213   4.375  1.00  0.00    +0.118 HD
ENDBRANCH   6   7
ENDBRANCH   1   6
TORSDOF 4
ENDMDL
MODEL 2
REMARK VINA RESULT:    -3.790     13.873     15.187
REMARK INTER + INTRA:          -4.616
REMARK INTER:                  -4.349
REMARK INTRA:                  -0.267
REMARK UNBOUND:                -0.050
REMARK SMILES CN(C)CCCN
REMARK SMILES IDX 5 1 4 2 2 3 1 4 3 5 6 6 7 7
REMARK H PARENT 7 8 7 9
ROOT
ATOM      1  C   UNL     1     -34.397  -0.968  -2.011  1.00  0.00    +0.030 C 
ENDROOT
BRANCH   1   2
ATOM      2  C   UNL     1     -33.843  -0.220  -0.791  1.00  0.00    +0.085 C 
BRANCH   2   3
ATOM      3  N   UNL     1     -33.190  -1.120   0.182  1.00  0.00    -0.309 NA
ATOM      4  C   UNL     1     -32.783  -0.357   1.365  1.00  0.00    +0.104 C 
ATOM      5  C   UNL     1     -34.072  -2.217   0.587  1.00  0.00    +0.104 C 
ENDBRANCH   2   3
ENDBRANCH   1   2
BRANCH   1   6
ATOM      6  C   UNL     1     -33.300  -1.390  -2.990  1.00  0.00    +0.079 C 
BRANCH   6   7
ATOM      7  N   UNL     1     -32.101  -0.568  -2.860  1.00  0.00    -0.330 NA
ATOM      8  H   UNL     1     -31.687  -0.713  -1.939  1.00  0.00    +0.118 HD
ATOM      9  H   UNL     1     -32.365   0.416  -2.898  1.00  0.00    +0.118 HD
ENDBRANCH   6   7
ENDBRANCH   1   6
TORSDOF 4
ENDMDL
MODEL 3
REMARK VINA RESULT:    -3.716      9.246     10.987
REMARK INTER + INTRA:          -4.527
REMARK INTER:                  -4.241
REMARK INTRA:                  -0.286
REMARK UNBOUND:                -0.050
REMARK SMILES CN(C)CCCN
REMARK SMILES IDX 5 1 4 2 2 3 1 4 3 5 6 6 7 7
REMARK H PARENT 7 8 7 9
ROOT
ATOM      1  C   UNL     1     -23.152   1.848  11.017  1.00  0.00    +0.030 C 
ENDROOT
BRANCH   1   2
ATOM      2  C   UNL     1     -24.521   1.693  10.341  1.00  0.00    +0.085 C 
BRANCH   2   3
ATOM      3  N   UNL     1     -24.943   2.912   9.621  1.00  0.00    -0.309 NA
ATOM      4  C   UNL     1     -26.365   2.815   9.276  1.00  0.00    +0.104 C 
ATOM      5  C   UNL     1     -24.713   4.121  10.414  1.00  0.00    +0.104 C 
ENDBRANCH   2   3
ENDBRANCH   1   2
BRANCH   1   6
ATOM      6  C   UNL     1     -22.004   1.342  10.141  1.00  0.00    +0.079 C 
BRANCH   6   7
ATOM      7  N   UNL     1     -22.418   1.139   8.756  1.00  0.00    -0.330 NA
ATOM      8  H   UNL     1     -21.807   1.671   8.136  1.00  0.00    +0.118 HD
ATOM      9  H   UNL     1     -23.353   1.523   8.626  1.00  0.00    +0.118 HD
ENDBRANCH   6   7
ENDBRANCH   1   6
TORSDOF 4
ENDMDL
MODEL 4
REMARK VINA RESULT:    -3.696      8.798     10.659
REMARK INTER + INTRA:          -4.503
REMARK INTER:                  -4.163
REMARK INTRA:                  -0.340
REMARK UNBOUND:                -0.050
REMARK SMILES CN(C)CCCN
REMARK SMILES IDX 5 1 4 2 2 3 1 4 3 5 6 6 7 7
REMARK H PARENT 7 8 7 9
ROOT
ATOM      1  C   UNL     1     -23.485   1.629  10.230  1.00  0.00    +0.030 C 
ENDROOT
BRANCH   1   2
ATOM      2  C   UNL     1     -23.841   2.887  11.034  1.00  0.00    +0.085 C 
BRANCH   2   3
ATOM      3  N   UNL     1     -25.201   3.385  10.744  1.00  0.00    -0.309 NA
ATOM      4  C   UNL     1     -25.876   3.737  11.996  1.00  0.00    +0.104 C 
ATOM      5  C   UNL     1     -25.178   4.549   9.856  1.00  0.00    +0.104 C 
ENDBRANCH   2   3
ENDBRANCH   1   2
BRANCH   1   6
ATOM      6  C   UNL     1     -24.670   0.673  10.082  1.00  0.00    +0.079 C 
BRANCH   6   7
ATOM      7  N   UNL     1     -25.472   0.969   8.899  1.00  0.00    -0.330 NA
ATOM      8  H   UNL     1     -25.371   1.955   8.657  1.00  0.00    +0.118 HD
ATOM      9  H   UNL     1     -26.458   0.834   9.120  1.00  0.00    +0.118 HD
ENDBRANCH   6   7
ENDBRANCH   1   6
TORSDOF 4
ENDMDL
MODEL 5
REMARK VINA RESULT:    -3.497     12.461     12.849
REMARK INTER + INTRA:          -4.263
REMARK INTER:                  -3.934
REMARK INTRA:                  -0.330
REMARK UNBOUND:                -0.050
REMARK SMILES CN(C)CCCN
REMARK SMILES IDX 5 1 4 2 2 3 1 4 3 5 6 6 7 7
REMARK H PARENT 7 8 7 9
ROOT
ATOM      1  C   UNL     1     -37.927   4.739  11.125  1.00  0.00    +0.030 C 
ENDROOT
BRANCH   1   2
ATOM      2  C   UNL     1     -36.538   4.691  10.472  1.00  0.00    +0.085 C 
BRANCH   2   3
ATOM      3  N   UNL     1     -36.597   4.773   8.999  1.00  0.00    -0.309 NA
ATOM      4  C   UNL     1     -35.618   5.753   8.518  1.00  0.00    +0.104 C 
ATOM      5  C   UNL     1     -36.340   3.475   8.370  1.00  0.00    +0.104 C 
ENDBRANCH   2   3
ENDBRANCH   1   2
BRANCH   1   6
ATOM      6  C   UNL     1     -38.983   5.365  10.212  1.00  0.00    +0.079 C 
BRANCH   6   7
ATOM      7  N   UNL     1     -39.714   4.359   9.447  1.00  0.00    -0.330 NA
ATOM      8  H   UNL     1     -39.058   3.679   9.064  1.00  0.00    +0.118 HD
ATOM      9  H   UNL     1     -40.157   4.806   8.645  1.00  0.00    +0.118 HD
ENDBRANCH   6   7
ENDBRANCH   1   6
TORSDOF 4
ENDMDL
MODEL 6
REMARK VINA RESULT:    -3.110      9.022     10.555
REMARK INTER + INTRA:          -3.797
REMARK INTER:                  -3.505
REMARK INTRA:                  -0.292
REMARK UNBOUND:                -0.050
REMARK SMILES CN(C)CCCN
REMARK SMILES IDX 5 1 4 2 2 3 1 4 3 5 6 6 7 7
REMARK H PARENT 7 8 7 9
ROOT
ATOM      1  C   UNL     1     -24.548   2.793  10.232  1.00  0.00    +0.030 C 
ENDROOT
BRANCH   1   2
ATOM      2  C   UNL     1     -25.616   1.806   9.740  1.00  0.00    +0.085 C 
BRANCH   2   3
ATOM      3  N   UNL     1     -26.387   1.202  10.845  1.00  0.00    -0.309 NA
ATOM      4  C   UNL     1     -27.812   1.182  10.500  1.00  0.00    +0.104 C 
ATOM      5  C   UNL     1     -25.937  -0.159  11.144  1.00  0.00    +0.104 C 
ENDBRANCH   2   3
ENDBRANCH   1   2
BRANCH   1   6
ATOM      6  C   UNL     1     -25.078   4.224  10.344  1.00  0.00    +0.079 C 
BRANCH   6   7
ATOM      7  N   UNL     1     -26.160   4.334  11.317  1.00  0.00    -0.330 NA
ATOM      8  H   UNL     1     -26.821   3.570  11.181  1.00  0.00    +0.118 HD
ATOM      9  H   UNL     1     -26.682   5.192  11.141  1.00  0.00    +0.118 HD
ENDBRANCH   6   7
ENDBRANCH   1   6
TORSDOF 4
ENDMDL
MODEL 7
REMARK VINA RESULT:    -2.920     11.006     11.831
REMARK INTER + INTRA:          -3.568
REMARK INTER:                  -3.535
REMARK INTRA:                  -0.033
REMARK UNBOUND:                -0.050
REMARK SMILES CN(C)CCCN
REMARK SMILES IDX 5 1 4 2 2 3 1 4 3 5 6 6 7 7
REMARK H PARENT 7 8 7 9
ROOT
ATOM      1  C   UNL     1     -35.345   4.853   8.115  1.00  0.00    +0.030 C 
ENDROOT
BRANCH   1   2
ATOM      2  C   UNL     1     -35.367   5.415   9.542  1.00  0.00    +0.085 C 
BRANCH   2   3
ATOM      3  N   UNL     1     -36.703   5.337  10.166  1.00  0.00    -0.309 NA
ATOM      4  C   UNL     1     -36.718   6.122  11.404  1.00  0.00    +0.104 C 
ATOM      5  C   UNL     1     -37.753   5.822   9.267  1.00  0.00    +0.104 C 
ENDBRANCH   2   3
ENDBRANCH   1   2
BRANCH   1   6
ATOM      6  C   UNL     1     -34.438   3.628   7.979  1.00  0.00    +0.079 C 
BRANCH   6   7
ATOM      7  N   UNL     1     -34.901   2.712   6.941  1.00  0.00    -0.330 NA
ATOM      8  H   UNL     1     -34.937   3.202   6.047  1.00  0.00    +0.118 HD
ATOM      9  H   UNL     1     -35.860   2.431   7.146  1.00  0.00    +0.118 HD
ENDBRANCH   6   7
ENDBRANCH   1   6
TORSDOF 4
ENDMDL
MODEL 8
REMARK VINA RESULT:    -2.908      6.813      7.594
REMARK INTER + INTRA:          -3.553
REMARK INTER:                  -3.330
REMARK INTRA:                  -0.223
REMARK UNBOUND:                -0.050
REMARK SMILES CN(C)CCCN
REMARK SMILES IDX 5 1 4 2 2 3 1 4 3 5 6 6 7 7
REMARK H PARENT 7 8 7 9
ROOT
ATOM      1  C   UNL     1     -33.622   6.825   4.889  1.00  0.00    +0.030 C 
ENDROOT
BRANCH   1   2
ATOM      2  C   UNL     1     -32.234   7.270   5.372  1.00  0.00    +0.085 C 
BRANCH   2   3
ATOM      3  N   UNL     1     -32.275   7.926   6.695  1.00  0.00    -0.309 NA
ATOM      4  C   UNL     1     -31.544   7.114   7.673  1.00  0.00    +0.104 C 
ATOM      5  C   UNL     1     -31.702   9.273   6.653  1.00  0.00    +0.104 C 
ENDBRANCH   2   3
ENDBRANCH   1   2
BRANCH   1   6
ATOM      6  C   UNL     1     -33.955   5.391   5.302  1.00  0.00    +0.079 C 
BRANCH   6   7
ATOM      7  N   UNL     1     -34.454   5.315   6.672  1.00  0.00    -0.330 NA
ATOM      8  H   UNL     1     -35.291   5.892   6.762  1.00  0.00    +0.118 HD
ATOM      9  H   UNL     1     -33.763   5.721   7.302  1.00  0.00    +0.118 HD
ENDBRANCH   6   7
ENDBRANCH   1   6
TORSDOF 4
ENDMDL
MODEL 9
REMARK VINA RESULT:    -2.897     10.365     11.361
REMARK INTER + INTRA:          -3.541
REMARK INTER:                  -3.270
REMARK INTRA:                  -0.270
REMARK UNBOUND:                -0.050
REMARK SMILES CN(C)CCCN
REMARK SMILES IDX 5 1 4 2 2 3 1 4 3 5 6 6 7 7
REMARK H PARENT 7 8 7 9
ROOT
ATOM      1  C   UNL     1     -35.952   3.115   8.147  1.00  0.00    +0.030 C 
ENDROOT
BRANCH   1   2
ATOM      2  C   UNL     1     -35.078   4.159   7.438  1.00  0.00    +0.085 C 
BRANCH   2   3
ATOM      3  N   UNL     1     -34.859   5.370   8.256  1.00  0.00    -0.309 NA
ATOM      4  C   UNL     1     -34.453   6.482   7.392  1.00  0.00    +0.104 C 
ATOM      5  C   UNL     1     -36.059   5.745   9.006  1.00  0.00    +0.104 C 
ENDBRANCH   2   3
ENDBRANCH   1   2
BRANCH   1   6
ATOM      6  C   UNL     1     -35.126   2.028   8.836  1.00  0.00    +0.079 C 
BRANCH   6   7
ATOM      7  N   UNL     1     -33.708   2.371   8.899  1.00  0.00    -0.330 NA
ATOM      8  H   UNL     1     -33.491   2.754   9.819  1.00  0.00    +0.118 HD
ATOM      9  H   UNL     1     -33.514   3.116   8.230  1.00  0.00    +0.118 HD
ENDBRANCH   6   7
ENDBRANCH   1   6
TORSDOF 4
ENDMDL
