REMARK SMILES N#CC(C#N)=Cc1ccc(Cl)c(Cl)c1
REMARK SMILES IDX 11 1 10 2 12 3 13 4 14 5 7 6 8 7 9 8 6 9 3 10 2 11 4 12 1 13
REMARK SMILES IDX 5 14
REMARK H PARENT
ROOT
ATOM      1 Cl   UNL     1      -4.092   1.181  -1.347  1.00  0.00    -0.083 Cl
ATOM      2  C   UNL     1      -2.587   0.647  -0.691  1.00  0.00    +0.059 A 
ATOM      3  C   UNL     1      -2.345  -0.689  -0.356  1.00  0.00    +0.060 A 
ATOM      4 Cl   UNL     1      -3.531  -1.927  -0.568  1.00  0.00    -0.083 Cl
ATOM      5  C   UNL     1      -1.104  -1.063   0.176  1.00  0.00    +0.030 A 
ATOM      6  C   UNL     1      -0.097  -0.110   0.369  1.00  0.00    -0.022 A 
ATOM      7  C   UNL     1      -0.350   1.228   0.044  1.00  0.00    +0.010 A 
ATOM      8  C   UNL     1      -1.588   1.602  -0.488  1.00  0.00    +0.023 A 
ENDROOT
BRANCH   6   9
ATOM      9  C   UNL     1       1.187  -0.532   0.944  1.00  0.00    +0.039 C 
ATOM     10  C   UNL     1       2.396  -0.424   0.355  1.00  0.00    +0.130 C 
ATOM     11  C   UNL     1       3.548  -0.893   1.049  1.00  0.00    +0.111 C 
ATOM     12  C   UNL     1       2.571   0.127  -0.945  1.00  0.00    +0.111 C 
ATOM     13  N   UNL     1       4.471  -1.281   1.636  1.00  0.00    -0.192 NA
ATOM     14  N   UNL     1       2.705   0.590  -2.001  1.00  0.00    -0.192 NA
ENDBRANCH   6   9
TORSDOF 1
