MODEL 1
REMARK VINA RESULT:    -6.912      0.000      0.000
REMARK INTER + INTRA:          -8.725
REMARK INTER:                  -8.326
REMARK INTRA:                  -0.399
REMARK UNBOUND:                -0.399
REMARK SMILES O=C(O)C=CC(=O)c1ccccc1
REMARK SMILES IDX 2 1 1 2 3 3 4 5 5 6 6 7 7 8 8 9 9 10 13 11 10 12 12 13 11 14
REMARK H PARENT 3 4
ROOT
ATOM      1  C   UNL     1     -25.867   7.186   7.326  1.00  0.00    +0.328 C 
ATOM      2  O   UNL     1     -26.883   7.067   7.981  1.00  0.00    -0.247 OA
ENDROOT
BRANCH   1   3
ATOM      3  O   UNL     1     -25.322   6.170   6.641  1.00  0.00    -0.478 OA
ATOM      4  H   UNL     1     -24.676   5.792   7.274  1.00  0.00    +0.297 HD
ENDBRANCH   1   3
BRANCH   1   5
ATOM      5  C   UNL     1     -25.016   8.375   7.216  1.00  0.00    +0.097 C 
ATOM      6  C   UNL     1     -25.351   9.456   6.499  1.00  0.00    +0.060 C 
BRANCH   6   7
ATOM      7  C   UNL     1     -26.528   9.488   5.592  1.00  0.00    +0.186 C 
ATOM      8  O   UNL     1     -26.512   8.886   4.524  1.00  0.00    -0.289 OA
BRANCH   7   9
ATOM      9  C   UNL     1     -27.674  10.361   5.969  1.00  0.00    +0.022 A 
ATOM     10  C   UNL     1     -27.855  11.640   5.425  1.00  0.00    +0.012 A 
ATOM     11  C   UNL     1     -28.587   9.881   6.917  1.00  0.00    +0.012 A 
ATOM     12  C   UNL     1     -28.949  12.418   5.815  1.00  0.00    +0.001 A 
ATOM     13  C   UNL     1     -29.679  10.661   7.303  1.00  0.00    +0.001 A 
ATOM     14  C   UNL     1     -29.860  11.927   6.749  1.00  0.00    +0.000 A 
ENDBRANCH   7   9
ENDBRANCH   6   7
ENDBRANCH   1   5
TORSDOF 4
ENDMDL
MODEL 2
REMARK VINA RESULT:    -6.866      2.215      3.499
REMARK INTER + INTRA:          -8.670
REMARK INTER:                  -8.205
REMARK INTRA:                  -0.465
REMARK UNBOUND:                -0.399
REMARK SMILES O=C(O)C=CC(=O)c1ccccc1
REMARK SMILES IDX 2 1 1 2 3 3 4 5 5 6 6 7 7 8 8 9 9 10 13 11 10 12 12 13 11 14
REMARK H PARENT 3 4
ROOT
ATOM      1  C   UNL     1     -26.564  11.347   5.089  1.00  0.00    +0.328 C 
ATOM      2  O   UNL     1     -27.306  12.308   5.059  1.00  0.00    -0.247 OA
ENDROOT
BRANCH   1   3
ATOM      3  O   UNL     1     -25.273  11.438   5.439  1.00  0.00    -0.478 OA
ATOM      4  H   UNL     1     -25.295  12.010   6.234  1.00  0.00    +0.297 HD
ENDBRANCH   1   3
BRANCH   1   5
ATOM      5  C   UNL     1     -26.879   9.970   4.691  1.00  0.00    +0.097 C 
ATOM      6  C   UNL     1     -27.570   9.122   5.463  1.00  0.00    +0.060 C 
BRANCH   6   7
ATOM      7  C   UNL     1     -27.928   9.422   6.873  1.00  0.00    +0.186 C 
ATOM      8  O   UNL     1     -27.119   9.243   7.776  1.00  0.00    -0.289 OA
BRANCH   7   9
ATOM      9  C   UNL     1     -29.328   9.840   7.163  1.00  0.00    +0.022 A 
ATOM     10  C   UNL     1     -29.688  11.180   7.358  1.00  0.00    +0.012 A 
ATOM     11  C   UNL     1     -30.309   8.843   7.260  1.00  0.00    +0.012 A 
ATOM     12  C   UNL     1     -31.017  11.516   7.629  1.00  0.00    +0.001 A 
ATOM     13  C   UNL     1     -31.636   9.183   7.529  1.00  0.00    +0.001 A 
ATOM     14  C   UNL     1     -31.989  10.520   7.710  1.00  0.00    +0.000 A 
ENDBRANCH   7   9
ENDBRANCH   6   7
ENDBRANCH   1   5
TORSDOF 4
ENDMDL
MODEL 3
REMARK VINA RESULT:    -6.781      1.644      2.865
REMARK INTER + INTRA:          -8.568
REMARK INTER:                  -8.111
REMARK INTRA:                  -0.456
REMARK UNBOUND:                -0.399
REMARK SMILES O=C(O)C=CC(=O)c1ccccc1
REMARK SMILES IDX 2 1 1 2 3 3 4 5 5 6 6 7 7 8 8 9 9 10 13 11 10 12 12 13 11 14
REMARK H PARENT 3 4
ROOT
ATOM      1  C   UNL     1     -25.413   9.423   6.270  1.00  0.00    +0.328 C 
ATOM      2  O   UNL     1     -25.150  10.589   6.055  1.00  0.00    -0.247 OA
ENDROOT
BRANCH   1   3
ATOM      3  O   UNL     1     -24.862   8.729   7.276  1.00  0.00    -0.478 OA
ATOM      4  H   UNL     1     -23.906   8.746   7.065  1.00  0.00    +0.297 HD
ENDBRANCH   1   3
BRANCH   1   5
ATOM      5  C   UNL     1     -26.278   8.547   5.472  1.00  0.00    +0.097 C 
ATOM      6  C   UNL     1     -27.538   8.248   5.813  1.00  0.00    +0.060 C 
BRANCH   6   7
ATOM      7  C   UNL     1     -28.128   8.621   7.125  1.00  0.00    +0.186 C 
ATOM      8  O   UNL     1     -27.756   8.073   8.157  1.00  0.00    -0.289 OA
BRANCH   7   9
ATOM      9  C   UNL     1     -29.257   9.592   7.131  1.00  0.00    +0.022 A 
ATOM     10  C   UNL     1     -30.581   9.205   7.378  1.00  0.00    +0.012 A 
ATOM     11  C   UNL     1     -28.973  10.937   6.858  1.00  0.00    +0.012 A 
ATOM     12  C   UNL     1     -31.602  10.159   7.371  1.00  0.00    +0.001 A 
ATOM     13  C   UNL     1     -29.996  11.887   6.853  1.00  0.00    +0.001 A 
ATOM     14  C   UNL     1     -31.309  11.498   7.112  1.00  0.00    +0.000 A 
ENDBRANCH   7   9
ENDBRANCH   6   7
ENDBRANCH   1   5
TORSDOF 4
ENDMDL
MODEL 4
REMARK VINA RESULT:    -6.772      1.449      2.392
REMARK INTER + INTRA:          -8.557
REMARK INTER:                  -8.124
REMARK INTRA:                  -0.432
REMARK UNBOUND:                -0.399
REMARK SMILES O=C(O)C=CC(=O)c1ccccc1
REMARK SMILES IDX 2 1 1 2 3 3 4 5 5 6 6 7 7 8 8 9 9 10 13 11 10 12 12 13 11 14
REMARK H PARENT 3 4
ROOT
ATOM      1  C   UNL     1     -24.905   7.952   6.906  1.00  0.00    +0.328 C 
ATOM      2  O   UNL     1     -24.220   8.896   6.567  1.00  0.00    -0.247 OA
ENDROOT
BRANCH   1   3
ATOM      3  O   UNL     1     -24.657   7.235   8.012  1.00  0.00    -0.478 OA
ATOM      4  H   UNL     1     -24.058   7.815   8.527  1.00  0.00    +0.297 HD
ENDBRANCH   1   3
BRANCH   1   5
ATOM      5  C   UNL     1     -26.039   7.371   6.178  1.00  0.00    +0.097 C 
ATOM      6  C   UNL     1     -27.273   7.892   6.202  1.00  0.00    +0.060 C 
BRANCH   6   7
ATOM      7  C   UNL     1     -27.664   8.998   7.114  1.00  0.00    +0.186 C 
ATOM      8  O   UNL     1     -27.817   8.797   8.313  1.00  0.00    -0.289 OA
BRANCH   7   9
ATOM      9  C   UNL     1     -27.971  10.324   6.509  1.00  0.00    +0.022 A 
ATOM     10  C   UNL     1     -29.225  10.937   6.636  1.00  0.00    +0.012 A 
ATOM     11  C   UNL     1     -26.965  10.963   5.771  1.00  0.00    +0.012 A 
ATOM     12  C   UNL     1     -29.459  12.182   6.047  1.00  0.00    +0.001 A 
ATOM     13  C   UNL     1     -27.203  12.208   5.185  1.00  0.00    +0.001 A 
ATOM     14  C   UNL     1     -28.449  12.817   5.326  1.00  0.00    +0.000 A 
ENDBRANCH   7   9
ENDBRANCH   6   7
ENDBRANCH   1   5
TORSDOF 4
ENDMDL
MODEL 5
REMARK VINA RESULT:    -6.533      4.671      6.159
REMARK INTER + INTRA:          -8.269
REMARK INTER:                  -8.213
REMARK INTRA:                  -0.056
REMARK UNBOUND:                -0.399
REMARK SMILES O=C(O)C=CC(=O)c1ccccc1
REMARK SMILES IDX 2 1 1 2 3 3 4 5 5 6 6 7 7 8 8 9 9 10 13 11 10 12 12 13 11 14
REMARK H PARENT 3 4
ROOT
ATOM      1  C   UNL     1     -34.361   6.235   6.875  1.00  0.00    +0.328 C 
ATOM      2  O   UNL     1     -34.698   5.114   7.197  1.00  0.00    -0.247 OA
ENDROOT
BRANCH   1   3
ATOM      3  O   UNL     1     -34.762   7.332   7.535  1.00  0.00    -0.478 OA
ATOM      4  H   UNL     1     -34.109   8.010   7.263  1.00  0.00    +0.297 HD
ENDBRANCH   1   3
BRANCH   1   5
ATOM      5  C   UNL     1     -33.558   6.620   5.709  1.00  0.00    +0.097 C 
ATOM      6  C   UNL     1     -32.313   7.107   5.802  1.00  0.00    +0.060 C 
BRANCH   6   7
ATOM      7  C   UNL     1     -31.689   7.482   7.097  1.00  0.00    +0.186 C 
ATOM      8  O   UNL     1     -31.618   6.673   8.015  1.00  0.00    -0.289 OA
BRANCH   7   9
ATOM      9  C   UNL     1     -31.257   8.896   7.278  1.00  0.00    +0.022 A 
ATOM     10  C   UNL     1     -29.981   9.345   6.911  1.00  0.00    +0.012 A 
ATOM     11  C   UNL     1     -32.163   9.795   7.857  1.00  0.00    +0.012 A 
ATOM     12  C   UNL     1     -29.627  10.684   7.105  1.00  0.00    +0.001 A 
ATOM     13  C   UNL     1     -31.806  11.131   8.048  1.00  0.00    +0.001 A 
ATOM     14  C   UNL     1     -30.540  11.575   7.668  1.00  0.00    +0.000 A 
ENDBRANCH   7   9
ENDBRANCH   6   7
ENDBRANCH   1   5
TORSDOF 4
ENDMDL
MODEL 6
REMARK VINA RESULT:    -6.052      2.913      5.275
REMARK INTER + INTRA:          -7.690
REMARK INTER:                  -7.875
REMARK INTRA:                   0.185
REMARK UNBOUND:                -0.399
REMARK SMILES O=C(O)C=CC(=O)c1ccccc1
REMARK SMILES IDX 2 1 1 2 3 3 4 5 5 6 6 7 7 8 8 9 9 10 13 11 10 12 12 13 11 14
REMARK H PARENT 3 4
ROOT
ATOM      1  C   UNL     1     -31.360  10.912   7.490  1.00  0.00    +0.328 C 
ATOM      2  O   UNL     1     -32.055  10.448   8.372  1.00  0.00    -0.247 OA
ENDROOT
BRANCH   1   3
ATOM      3  O   UNL     1     -31.788  11.053   6.227  1.00  0.00    -0.478 OA
ATOM      4  H   UNL     1     -31.391  10.284   5.767  1.00  0.00    +0.297 HD
ENDBRANCH   1   3
BRANCH   1   5
ATOM      5  C   UNL     1     -29.954  11.319   7.590  1.00  0.00    +0.097 C 
ATOM      6  C   UNL     1     -28.933  10.528   7.234  1.00  0.00    +0.060 C 
BRANCH   6   7
ATOM      7  C   UNL     1     -29.107   9.096   6.880  1.00  0.00    +0.186 C 
ATOM      8  O   UNL     1     -30.190   8.676   6.488  1.00  0.00    -0.289 OA
BRANCH   7   9
ATOM      9  C   UNL     1     -27.964   8.173   7.124  1.00  0.00    +0.022 A 
ATOM     10  C   UNL     1     -26.735   8.308   6.464  1.00  0.00    +0.012 A 
ATOM     11  C   UNL     1     -28.143   7.124   8.036  1.00  0.00    +0.012 A 
ATOM     12  C   UNL     1     -25.695   7.413   6.730  1.00  0.00    +0.001 A 
ATOM     13  C   UNL     1     -27.102   6.233   8.300  1.00  0.00    +0.001 A 
ATOM     14  C   UNL     1     -25.877   6.381   7.649  1.00  0.00    +0.000 A 
ENDBRANCH   7   9
ENDBRANCH   6   7
ENDBRANCH   1   5
TORSDOF 4
ENDMDL
MODEL 7
REMARK VINA RESULT:    -6.012      7.328      8.705
REMARK INTER + INTRA:          -7.642
REMARK INTER:                  -7.276
REMARK INTRA:                  -0.366
REMARK UNBOUND:                -0.399
REMARK SMILES O=C(O)C=CC(=O)c1ccccc1
REMARK SMILES IDX 2 1 1 2 3 3 4 5 5 6 6 7 7 8 8 9 9 10 13 11 10 12 12 13 11 14
REMARK H PARENT 3 4
ROOT
ATOM      1  C   UNL     1     -35.097   2.609   8.250  1.00  0.00    +0.328 C 
ATOM      2  O   UNL     1     -34.646   1.820   9.055  1.00  0.00    -0.247 OA
ENDROOT
BRANCH   1   3
ATOM      3  O   UNL     1     -34.811   2.553   6.941  1.00  0.00    -0.478 OA
ATOM      4  H   UNL     1     -34.259   3.350   6.796  1.00  0.00    +0.297 HD
ENDBRANCH   1   3
BRANCH   1   5
ATOM      5  C   UNL     1     -35.937   3.779   8.527  1.00  0.00    +0.097 C 
ATOM      6  C   UNL     1     -35.459   5.029   8.593  1.00  0.00    +0.060 C 
BRANCH   6   7
ATOM      7  C   UNL     1     -34.006   5.338   8.577  1.00  0.00    +0.186 C 
ATOM      8  O   UNL     1     -33.305   5.103   9.555  1.00  0.00    -0.289 OA
BRANCH   7   9
ATOM      9  C   UNL     1     -33.456   6.042   7.386  1.00  0.00    +0.022 A 
ATOM     10  C   UNL     1     -32.312   6.849   7.451  1.00  0.00    +0.012 A 
ATOM     11  C   UNL     1     -34.128   5.898   6.164  1.00  0.00    +0.012 A 
ATOM     12  C   UNL     1     -31.839   7.488   6.301  1.00  0.00    +0.001 A 
ATOM     13  C   UNL     1     -33.651   6.537   5.018  1.00  0.00    +0.001 A 
ATOM     14  C   UNL     1     -32.506   7.328   5.087  1.00  0.00    +0.000 A 
ENDBRANCH   7   9
ENDBRANCH   6   7
ENDBRANCH   1   5
TORSDOF 4
ENDMDL
MODEL 8
REMARK VINA RESULT:    -5.966      9.495     11.238
REMARK INTER + INTRA:          -7.586
REMARK INTER:                  -7.283
REMARK INTRA:                  -0.303
REMARK UNBOUND:                -0.399
REMARK SMILES O=C(O)C=CC(=O)c1ccccc1
REMARK SMILES IDX 2 1 1 2 3 3 4 5 5 6 6 7 7 8 8 9 9 10 13 11 10 12 12 13 11 14
REMARK H PARENT 3 4
ROOT
ATOM      1  C   UNL     1     -38.956   5.322  10.154  1.00  0.00    +0.328 C 
ATOM      2  O   UNL     1     -39.100   6.520  10.017  1.00  0.00    -0.247 OA
ENDROOT
BRANCH   1   3
ATOM      3  O   UNL     1     -39.716   4.422   9.512  1.00  0.00    -0.478 OA
ATOM      4  H   UNL     1     -40.035   4.914   8.727  1.00  0.00    +0.297 HD
ENDBRANCH   1   3
BRANCH   1   5
ATOM      5  C   UNL     1     -38.029   4.636  11.061  1.00  0.00    +0.097 C 
ATOM      6  C   UNL     1     -36.818   4.205  10.687  1.00  0.00    +0.060 C 
BRANCH   6   7
ATOM      7  C   UNL     1     -36.362   4.208   9.273  1.00  0.00    +0.186 C 
ATOM      8  O   UNL     1     -37.031   3.669   8.399  1.00  0.00    -0.289 OA
BRANCH   7   9
ATOM      9  C   UNL     1     -35.022   4.783   8.974  1.00  0.00    +0.022 A 
ATOM     10  C   UNL     1     -33.925   4.621   9.832  1.00  0.00    +0.012 A 
ATOM     11  C   UNL     1     -34.869   5.529   7.797  1.00  0.00    +0.012 A 
ATOM     12  C   UNL     1     -32.689   5.184   9.503  1.00  0.00    +0.001 A 
ATOM     13  C   UNL     1     -33.633   6.088   7.471  1.00  0.00    +0.001 A 
ATOM     14  C   UNL     1     -32.543   5.913   8.323  1.00  0.00    +0.000 A 
ENDBRANCH   7   9
ENDBRANCH   6   7
ENDBRANCH   1   5
TORSDOF 4
ENDMDL
MODEL 9
REMARK VINA RESULT:    -5.914      7.289      8.858
REMARK INTER + INTRA:          -7.524
REMARK INTER:                  -7.103
REMARK INTRA:                  -0.421
REMARK UNBOUND:                -0.399
REMARK SMILES O=C(O)C=CC(=O)c1ccccc1
REMARK SMILES IDX 2 1 1 2 3 3 4 5 5 6 6 7 7 8 8 9 9 10 13 11 10 12 12 13 11 14
REMARK H PARENT 3 4
ROOT
ATOM      1  C   UNL     1     -36.293   5.536   9.723  1.00  0.00    +0.328 C 
ATOM      2  O   UNL     1     -36.792   6.601   9.420  1.00  0.00    -0.247 OA
ENDROOT
BRANCH   1   3
ATOM      3  O   UNL     1     -35.818   5.280  10.951  1.00  0.00    -0.478 OA
ATOM      4  H   UNL     1     -36.512   4.712  11.347  1.00  0.00    +0.297 HD
ENDBRANCH   1   3
BRANCH   1   5
ATOM      5  C   UNL     1     -36.038   4.392   8.840  1.00  0.00    +0.097 C 
ATOM      6  C   UNL     1     -34.827   4.100   8.346  1.00  0.00    +0.060 C 
BRANCH   6   7
ATOM      7  C   UNL     1     -33.658   5.007   8.488  1.00  0.00    +0.186 C 
ATOM      8  O   UNL     1     -33.076   5.115   9.561  1.00  0.00    -0.289 OA
BRANCH   7   9
ATOM      9  C   UNL     1     -33.291   5.857   7.322  1.00  0.00    +0.022 A 
ATOM     10  C   UNL     1     -33.961   5.778   6.093  1.00  0.00    +0.012 A 
ATOM     11  C   UNL     1     -32.222   6.752   7.466  1.00  0.00    +0.012 A 
ATOM     12  C   UNL     1     -33.574   6.600   5.030  1.00  0.00    +0.001 A 
ATOM     13  C   UNL     1     -31.839   7.571   6.403  1.00  0.00    +0.001 A 
ATOM     14  C   UNL     1     -32.518   7.497   5.187  1.00  0.00    +0.000 A 
ENDBRANCH   7   9
ENDBRANCH   6   7
ENDBRANCH   1   5
TORSDOF 4
ENDMDL
