REMARK SMILES CC1=C(C(=O)O)CCCO1
REMARK SMILES IDX 4 1 5 2 3 3 2 4 10 5 7 6 9 7 8 8 1 9 6 10
REMARK H PARENT 6 11
ROOT
ATOM      1  C   UNL     1      -1.790  -1.060   0.004  1.00  0.00    +0.334 C 
ATOM      2  O   UNL     1      -2.804  -0.680   0.558  1.00  0.00    -0.247 OA
ENDROOT
BRANCH   1   3
ATOM      3  C   UNL     1      -0.471  -0.389  -0.025  1.00  0.00    +0.074 C 
ATOM      4  C   UNL     1      -0.360   0.948   0.135  1.00  0.00    +0.103 C 
ATOM      5  O   UNL     1       0.861   1.606   0.137  1.00  0.00    -0.498 OA
ATOM      6  C   UNL     1       0.737  -1.272  -0.169  1.00  0.00    +0.050 C 
ATOM      7  C   UNL     1       1.970   0.865  -0.378  1.00  0.00    +0.229 C 
ATOM      8  C   UNL     1       2.017  -0.535   0.203  1.00  0.00    +0.047 C 
ATOM      9  C   UNL     1      -1.513   1.898   0.305  1.00  0.00    +0.087 C 
ENDBRANCH   1   3
BRANCH   1  10
ATOM     10  O   UNL     1      -1.770  -2.218  -0.678  1.00  0.00    -0.478 OA
ATOM     11  H   UNL     1      -2.686  -2.553  -0.584  1.00  0.00    +0.297 HD
ENDBRANCH   1  10
TORSDOF 2
