REMARK SMILES CC(=O)N(CC(=O)N(CC(=O)O)c1ccc(Cl)cc1)c1ccc(Cl)cc1
REMARK SMILES IDX 6 1 7 2 5 3 4 4 2 5 3 6 1 7 20 8 21 9 26 10 22 11 25 12
REMARK SMILES IDX 23 13 24 14 8 15 9 16 10 17 11 18 12 19 13 21 14 22 19 23
REMARK SMILES IDX 15 24 18 25 16 26 17 27
REMARK H PARENT 12 20
ROOT
ATOM      1  C   UNL     1      -0.450  -1.573   1.053  1.00  0.00    +0.247 C 
ATOM      2  O   UNL     1      -0.825  -2.701   1.397  1.00  0.00    -0.272 OA
ENDROOT
BRANCH   1   3
ATOM      3  C   UNL     1       1.015  -1.164   1.330  1.00  0.00    +0.226 C 
BRANCH   3   4
ATOM      4  N   UNL     1       1.725  -0.380   0.297  1.00  0.00    -0.303 N 
BRANCH   4   5
ATOM      5  C   UNL     1       2.607   0.660   0.640  1.00  0.00    +0.224 C 
ATOM      6  O   UNL     1       3.245   1.343  -0.163  1.00  0.00    -0.275 OA
ATOM      7  C   UNL     1       2.832   0.917   2.113  1.00  0.00    +0.115 C 
ENDBRANCH   4   5
BRANCH   4   8
ATOM      8  C   UNL     1       1.599  -0.811  -1.076  1.00  0.00    +0.044 A 
ATOM      9  C   UNL     1       1.323  -2.153  -1.394  1.00  0.00    +0.028 A 
ATOM     10  C   UNL     1       1.714   0.094  -2.143  1.00  0.00    +0.028 A 
ATOM     11  C   UNL     1       1.166  -2.570  -2.723  1.00  0.00    +0.022 A 
ATOM     12  C   UNL     1       1.559  -0.318  -3.472  1.00  0.00    +0.022 A 
ATOM     13  C   UNL     1       1.284  -1.649  -3.756  1.00  0.00    +0.041 A 
ATOM     14 Cl   UNL     1       1.085  -2.158  -5.386  1.00  0.00    -0.084 Cl
ENDBRANCH   4   8
ENDBRANCH   3   4
ENDBRANCH   1   3
BRANCH   1  15
ATOM     15  N   UNL     1      -1.318  -0.676   0.436  1.00  0.00    -0.300 N 
BRANCH  15  16
ATOM     16  C   UNL     1      -2.611  -1.215  -0.011  1.00  0.00    +0.248 C 
BRANCH  16  17
ATOM     17  C   UNL     1      -3.682  -1.284   1.071  1.00  0.00    +0.323 C 
ATOM     18  O   UNL     1      -4.818  -1.708   0.902  1.00  0.00    -0.250 OA
BRANCH  17  19
ATOM     19  O   UNL     1      -3.319  -0.822   2.284  1.00  0.00    -0.480 OA
ATOM     20  H   UNL     1      -4.113  -0.975   2.838  1.00  0.00    +0.296 HD
ENDBRANCH  17  19
ENDBRANCH  16  17
ENDBRANCH  15  16
BRANCH  15  21
ATOM     21  C   UNL     1      -1.183   0.738   0.471  1.00  0.00    +0.044 A 
ATOM     22  C   UNL     1      -1.431   1.495  -0.681  1.00  0.00    +0.028 A 
ATOM     23  C   UNL     1      -0.848   1.400   1.658  1.00  0.00    +0.028 A 
ATOM     24  C   UNL     1      -1.310   2.888  -0.657  1.00  0.00    +0.022 A 
ATOM     25  C   UNL     1      -0.733   2.793   1.686  1.00  0.00    +0.022 A 
ATOM     26  C   UNL     1      -0.958   3.531   0.526  1.00  0.00    +0.041 A 
ATOM     27 Cl   UNL     1      -0.815   5.244   0.561  1.00  0.00    -0.084 Cl
ENDBRANCH  15  21
ENDBRANCH   1  15
TORSDOF 9
