MODEL 1
REMARK VINA RESULT:    -5.973      0.000      0.000
REMARK INTER + INTRA:          -6.289
REMARK INTER:                  -6.322
REMARK INTRA:                   0.033
REMARK UNBOUND:                 0.033
REMARK SMILES Cc1ccccc1N(C)C
REMARK SMILES IDX 7 1 2 2 1 3 3 4 4 5 5 6 6 7 8 8 9 9 10 10
REMARK H PARENT
ROOT
ATOM      1  C   UNL     1     -29.857  10.585   6.754  1.00  0.00    +0.039 A 
ATOM      2  C   UNL     1     -28.599   9.951   6.693  1.00  0.00    -0.028 A 
ATOM      3  C   UNL     1     -28.397   8.583   7.286  1.00  0.00    +0.046 C 
ATOM      4  C   UNL     1     -27.518  10.601   6.074  1.00  0.00    +0.005 A 
ATOM      5  C   UNL     1     -27.676  11.871   5.519  1.00  0.00    +0.000 A 
ATOM      6  C   UNL     1     -28.915  12.501   5.574  1.00  0.00    +0.002 A 
ATOM      7  C   UNL     1     -29.996  11.862   6.184  1.00  0.00    +0.026 A 
ENDROOT
BRANCH   1   8
ATOM      8  N   UNL     1     -30.942   9.912   7.363  1.00  0.00    -0.377 N 
ATOM      9  C   UNL     1     -31.665   9.089   6.390  1.00  0.00    +0.143 C 
ATOM     10  C   UNL     1     -31.798  10.789   8.163  1.00  0.00    +0.143 C 
ENDBRANCH   1   8
TORSDOF 1
ENDMDL
MODEL 2
REMARK VINA RESULT:    -5.943      1.817      3.862
REMARK INTER + INTRA:          -6.258
REMARK INTER:                  -6.151
REMARK INTRA:                  -0.107
REMARK UNBOUND:                 0.033
REMARK SMILES Cc1ccccc1N(C)C
REMARK SMILES IDX 7 1 2 2 1 3 3 4 4 5 5 6 6 7 8 8 9 9 10 10
REMARK H PARENT
ROOT
ATOM      1  C   UNL     1     -28.048  10.487   6.173  1.00  0.00    +0.039 A 
ATOM      2  C   UNL     1     -28.468  11.793   5.846  1.00  0.00    -0.028 A 
ATOM      3  C   UNL     1     -27.565  12.723   5.083  1.00  0.00    +0.046 C 
ATOM      4  C   UNL     1     -29.743  12.235   6.237  1.00  0.00    +0.005 A 
ATOM      5  C   UNL     1     -30.600  11.396   6.948  1.00  0.00    +0.000 A 
ATOM      6  C   UNL     1     -30.193  10.106   7.272  1.00  0.00    +0.002 A 
ATOM      7  C   UNL     1     -28.930   9.655   6.886  1.00  0.00    +0.026 A 
ENDROOT
BRANCH   1   8
ATOM      8  N   UNL     1     -26.770  10.046   5.758  1.00  0.00    -0.377 N 
ATOM      9  C   UNL     1     -26.873   8.862   4.903  1.00  0.00    +0.143 C 
ATOM     10  C   UNL     1     -25.813   9.914   6.857  1.00  0.00    +0.143 C 
ENDBRANCH   1   8
TORSDOF 1
ENDMDL
MODEL 3
REMARK VINA RESULT:    -5.822      0.984      2.545
REMARK INTER + INTRA:          -6.129
REMARK INTER:                  -6.259
REMARK INTRA:                   0.129
REMARK UNBOUND:                 0.033
REMARK SMILES Cc1ccccc1N(C)C
REMARK SMILES IDX 7 1 2 2 1 3 3 4 4 5 5 6 6 7 8 8 9 9 10 10
REMARK H PARENT
ROOT
ATOM      1  C   UNL     1     -28.995  10.014   6.667  1.00  0.00    +0.039 A 
ATOM      2  C   UNL     1     -29.670  11.251   6.719  1.00  0.00    -0.028 A 
ATOM      3  C   UNL     1     -30.966  11.389   7.472  1.00  0.00    +0.046 C 
ATOM      4  C   UNL     1     -29.132  12.369   6.060  1.00  0.00    +0.005 A 
ATOM      5  C   UNL     1     -27.935  12.269   5.352  1.00  0.00    +0.000 A 
ATOM      6  C   UNL     1     -27.262  11.052   5.298  1.00  0.00    +0.002 A 
ATOM      7  C   UNL     1     -27.787   9.936   5.952  1.00  0.00    +0.026 A 
ENDROOT
BRANCH   1   8
ATOM      8  N   UNL     1     -29.537   8.900   7.350  1.00  0.00    -0.377 N 
ATOM      9  C   UNL     1     -28.478   8.012   7.834  1.00  0.00    +0.143 C 
ATOM     10  C   UNL     1     -30.600   8.221   6.608  1.00  0.00    +0.143 C 
ENDBRANCH   1   8
TORSDOF 1
ENDMDL
MODEL 4
REMARK VINA RESULT:    -5.773      1.666      2.650
REMARK INTER + INTRA:          -6.077
REMARK INTER:                  -5.968
REMARK INTRA:                  -0.110
REMARK UNBOUND:                 0.033
REMARK SMILES Cc1ccccc1N(C)C
REMARK SMILES IDX 7 1 2 2 1 3 3 4 4 5 5 6 6 7 8 8 9 9 10 10
REMARK H PARENT
ROOT
ATOM      1  C   UNL     1     -30.934   9.115   7.175  1.00  0.00    +0.039 A 
ATOM      2  C   UNL     1     -29.649   9.656   6.964  1.00  0.00    -0.028 A 
ATOM      3  C   UNL     1     -28.531   8.800   6.432  1.00  0.00    +0.046 C 
ATOM      4  C   UNL     1     -29.404  11.009   7.255  1.00  0.00    +0.005 A 
ATOM      5  C   UNL     1     -30.419  11.824   7.752  1.00  0.00    +0.000 A 
ATOM      6  C   UNL     1     -31.690  11.298   7.960  1.00  0.00    +0.002 A 
ATOM      7  C   UNL     1     -31.945   9.956   7.672  1.00  0.00    +0.026 A 
ENDROOT
BRANCH   1   8
ATOM      8  N   UNL     1     -31.173   7.757   6.861  1.00  0.00    -0.377 N 
ATOM      9  C   UNL     1     -32.097   7.632   5.731  1.00  0.00    +0.143 C 
ATOM     10  C   UNL     1     -31.531   6.943   8.023  1.00  0.00    +0.143 C 
ENDBRANCH   1   8
TORSDOF 1
ENDMDL
MODEL 5
REMARK VINA RESULT:    -5.493      1.002      2.827
REMARK INTER + INTRA:          -5.781
REMARK INTER:                  -5.786
REMARK INTRA:                   0.005
REMARK UNBOUND:                 0.033
REMARK SMILES Cc1ccccc1N(C)C
REMARK SMILES IDX 7 1 2 2 1 3 3 4 4 5 5 6 6 7 8 8 9 9 10 10
REMARK H PARENT
ROOT
ATOM      1  C   UNL     1     -30.125   9.417   6.892  1.00  0.00    +0.039 A 
ATOM      2  C   UNL     1     -29.284  10.517   6.624  1.00  0.00    -0.028 A 
ATOM      3  C   UNL     1     -29.857  11.830   6.165  1.00  0.00    +0.046 C 
ATOM      4  C   UNL     1     -27.894  10.388   6.784  1.00  0.00    +0.005 A 
ATOM      5  C   UNL     1     -27.336   9.181   7.204  1.00  0.00    +0.000 A 
ATOM      6  C   UNL     1     -28.160   8.094   7.472  1.00  0.00    +0.002 A 
ATOM      7  C   UNL     1     -29.542   8.212   7.320  1.00  0.00    +0.026 A 
ENDROOT
BRANCH   1   8
ATOM      8  N   UNL     1     -31.525   9.565   6.746  1.00  0.00    -0.377 N 
ATOM      9  C   UNL     1     -32.144   9.986   8.005  1.00  0.00    +0.143 C 
ATOM     10  C   UNL     1     -32.170   8.414   6.113  1.00  0.00    +0.143 C 
ENDBRANCH   1   8
TORSDOF 1
ENDMDL
MODEL 6
REMARK VINA RESULT:    -5.325      4.866      6.196
REMARK INTER + INTRA:          -5.603
REMARK INTER:                  -5.520
REMARK INTRA:                  -0.083
REMARK UNBOUND:                 0.033
REMARK SMILES Cc1ccccc1N(C)C
REMARK SMILES IDX 7 1 2 2 1 3 3 4 4 5 5 6 6 7 8 8 9 9 10 10
REMARK H PARENT
ROOT
ATOM      1  C   UNL     1     -33.699   5.731   7.083  1.00  0.00    +0.039 A 
ATOM      2  C   UNL     1     -32.477   6.278   7.526  1.00  0.00    -0.028 A 
ATOM      3  C   UNL     1     -31.946   5.964   8.898  1.00  0.00    +0.046 C 
ATOM      4  C   UNL     1     -31.745   7.128   6.680  1.00  0.00    +0.005 A 
ATOM      5  C   UNL     1     -32.216   7.439   5.405  1.00  0.00    +0.000 A 
ATOM      6  C   UNL     1     -33.419   6.901   4.961  1.00  0.00    +0.002 A 
ATOM      7  C   UNL     1     -34.152   6.053   5.792  1.00  0.00    +0.026 A 
ENDROOT
BRANCH   1   8
ATOM      8  N   UNL     1     -34.417   4.861   7.937  1.00  0.00    -0.377 N 
ATOM      9  C   UNL     1     -34.750   3.608   7.253  1.00  0.00    +0.143 C 
ATOM     10  C   UNL     1     -35.551   5.502   8.604  1.00  0.00    +0.143 C 
ENDBRANCH   1   8
TORSDOF 1
ENDMDL
MODEL 7
REMARK VINA RESULT:    -5.252      4.032      5.779
REMARK INTER + INTRA:          -5.526
REMARK INTER:                  -5.510
REMARK INTRA:                  -0.016
REMARK UNBOUND:                 0.033
REMARK SMILES Cc1ccccc1N(C)C
REMARK SMILES IDX 7 1 2 2 1 3 3 4 4 5 5 6 6 7 8 8 9 9 10 10
REMARK H PARENT
ROOT
ATOM      1  C   UNL     1     -33.001   6.148   7.287  1.00  0.00    +0.039 A 
ATOM      2  C   UNL     1     -33.031   6.333   5.889  1.00  0.00    -0.028 A 
ATOM      3  C   UNL     1     -33.977   5.541   5.028  1.00  0.00    +0.046 C 
ATOM      4  C   UNL     1     -32.168   7.266   5.289  1.00  0.00    +0.005 A 
ATOM      5  C   UNL     1     -31.278   8.011   6.062  1.00  0.00    +0.000 A 
ATOM      6  C   UNL     1     -31.245   7.835   7.441  1.00  0.00    +0.002 A 
ATOM      7  C   UNL     1     -32.101   6.914   8.048  1.00  0.00    +0.026 A 
ENDROOT
BRANCH   1   8
ATOM      8  N   UNL     1     -33.888   5.220   7.881  1.00  0.00    -0.377 N 
ATOM      9  C   UNL     1     -35.120   5.878   8.322  1.00  0.00    +0.143 C 
ATOM     10  C   UNL     1     -33.257   4.380   8.899  1.00  0.00    +0.143 C 
ENDBRANCH   1   8
TORSDOF 1
ENDMDL
MODEL 8
REMARK VINA RESULT:    -5.113      7.383      9.399
REMARK INTER + INTRA:          -5.379
REMARK INTER:                  -5.280
REMARK INTRA:                  -0.098
REMARK UNBOUND:                 0.033
REMARK SMILES Cc1ccccc1N(C)C
REMARK SMILES IDX 7 1 2 2 1 3 3 4 4 5 5 6 6 7 8 8 9 9 10 10
REMARK H PARENT
ROOT
ATOM      1  C   UNL     1     -35.478   4.908   9.575  1.00  0.00    +0.039 A 
ATOM      2  C   UNL     1     -35.381   5.282  10.931  1.00  0.00    -0.028 A 
ATOM      3  C   UNL     1     -34.147   4.961  11.730  1.00  0.00    +0.046 C 
ATOM      4  C   UNL     1     -36.446   5.960  11.547  1.00  0.00    +0.005 A 
ATOM      5  C   UNL     1     -37.603   6.267  10.831  1.00  0.00    +0.000 A 
ATOM      6  C   UNL     1     -37.705   5.903   9.493  1.00  0.00    +0.002 A 
ATOM      7  C   UNL     1     -36.651   5.232   8.870  1.00  0.00    +0.026 A 
ENDROOT
BRANCH   1   8
ATOM      8  N   UNL     1     -34.391   4.243   8.960  1.00  0.00    -0.377 N 
ATOM      9  C   UNL     1     -33.664   5.143   8.062  1.00  0.00    +0.143 C 
ATOM     10  C   UNL     1     -34.757   2.959   8.360  1.00  0.00    +0.143 C 
ENDBRANCH   1   8
TORSDOF 1
ENDMDL
MODEL 9
REMARK VINA RESULT:    -4.970      8.191     10.767
REMARK INTER + INTRA:          -5.227
REMARK INTER:                  -5.121
REMARK INTRA:                  -0.106
REMARK UNBOUND:                 0.033
REMARK SMILES Cc1ccccc1N(C)C
REMARK SMILES IDX 7 1 2 2 1 3 3 4 4 5 5 6 6 7 8 8 9 9 10 10
REMARK H PARENT
ROOT
ATOM      1  C   UNL     1     -36.026   4.334  10.333  1.00  0.00    +0.039 A 
ATOM      2  C   UNL     1     -37.131   5.099  10.759  1.00  0.00    -0.028 A 
ATOM      3  C   UNL     1     -37.062   6.602  10.783  1.00  0.00    +0.046 C 
ATOM      4  C   UNL     1     -38.310   4.455  11.169  1.00  0.00    +0.005 A 
ATOM      5  C   UNL     1     -38.401   3.064  11.160  1.00  0.00    +0.000 A 
ATOM      6  C   UNL     1     -37.316   2.303  10.739  1.00  0.00    +0.002 A 
ATOM      7  C   UNL     1     -36.140   2.933  10.326  1.00  0.00    +0.026 A 
ENDROOT
BRANCH   1   8
ATOM      8  N   UNL     1     -34.851   4.994   9.904  1.00  0.00    -0.377 N 
ATOM      9  C   UNL     1     -34.683   4.883   8.453  1.00  0.00    +0.143 C 
ATOM     10  C   UNL     1     -33.662   4.630  10.677  1.00  0.00    +0.143 C 
ENDBRANCH   1   8
TORSDOF 1
ENDMDL
