REMARK SMILES CC(=O)OCCC#N
REMARK SMILES IDX 4 1 2 2 3 3 1 4 5 5 6 6 7 7 8 8
REMARK H PARENT
ROOT
ATOM      1  O   UNL     1      -0.536   0.279   0.776  1.00  0.00    -0.465 OA
ENDROOT
BRANCH   1   2
ATOM      2  C   UNL     1      -1.332   0.077  -0.310  1.00  0.00    +0.302 C 
ATOM      3  O   UNL     1      -0.974   0.187  -1.473  1.00  0.00    -0.253 OA
ATOM      4  C   UNL     1      -2.709  -0.318   0.125  1.00  0.00    +0.139 C 
ENDBRANCH   1   2
BRANCH   1   5
ATOM      5  C   UNL     1       0.806   0.712   0.487  1.00  0.00    +0.248 C 
BRANCH   5   6
ATOM      6  C   UNL     1       1.692  -0.467   0.108  1.00  0.00    +0.161 C 
ATOM      7  C   UNL     1       3.084  -0.038  -0.047  1.00  0.00    +0.066 C 
ATOM      8  N   UNL     1       4.186   0.308  -0.156  1.00  0.00    -0.198 NA
ENDBRANCH   5   6
ENDBRANCH   1   5
TORSDOF 3
