MODEL 1
REMARK VINA RESULT:    -6.816      0.000      0.000
REMARK INTER + INTRA:          -8.413
REMARK INTER:                  -8.211
REMARK INTRA:                  -0.202
REMARK UNBOUND:                -0.202
REMARK SMILES Cc1ccc(CCC(=O)O)cc1
REMARK SMILES IDX 7 1 6 2 5 3 2 4 3 5 12 6 4 7 11 8 1 9 8 10 9 11 10 12
REMARK H PARENT 10 13
ROOT
ATOM      1  C   UNL     1     -26.149   7.955   6.122  1.00  0.00    +0.127 C 
ENDROOT
BRANCH   1   2
ATOM      2  C   UNL     1     -26.271   9.422   5.723  1.00  0.00    +0.047 C 
BRANCH   2   3
ATOM      3  C   UNL     1     -27.597  10.003   6.150  1.00  0.00    -0.047 A 
ATOM      4  C   UNL     1     -30.096  11.065   6.899  1.00  0.00    -0.051 A 
ATOM      5  C   UNL     1     -29.194  11.831   6.152  1.00  0.00    +0.004 A 
ATOM      6  C   UNL     1     -29.732   9.771   7.283  1.00  0.00    +0.004 A 
ATOM      7  C   UNL     1     -27.958  11.302   5.774  1.00  0.00    +0.004 A 
ATOM      8  C   UNL     1     -28.496   9.240   6.906  1.00  0.00    +0.004 A 
ATOM      9  C   UNL     1     -31.409  11.646   7.334  1.00  0.00    +0.044 C 
ENDBRANCH   2   3
ENDBRANCH   1   2
BRANCH   1  10
ATOM     10  C   UNL     1     -24.924   7.726   6.959  1.00  0.00    +0.303 C 
ATOM     11  O   UNL     1     -24.825   7.038   7.960  1.00  0.00    -0.252 OA
BRANCH  10  12
ATOM     12  O   UNL     1     -23.855   8.393   6.480  1.00  0.00    -0.481 OA
ATOM     13  H   UNL     1     -24.239   9.065   5.880  1.00  0.00    +0.296 HD
ENDBRANCH  10  12
ENDBRANCH   1  10
TORSDOF 4
ENDMDL
MODEL 2
REMARK VINA RESULT:    -6.631      3.740      5.549
REMARK INTER + INTRA:          -8.189
REMARK INTER:                  -7.953
REMARK INTRA:                  -0.237
REMARK UNBOUND:                -0.202
REMARK SMILES Cc1ccc(CCC(=O)O)cc1
REMARK SMILES IDX 7 1 6 2 5 3 2 4 3 5 12 6 4 7 11 8 1 9 8 10 9 11 10 12
REMARK H PARENT 10 13
ROOT
ATOM      1  C   UNL     1     -31.736   9.192   7.905  1.00  0.00    +0.127 C 
ENDROOT
BRANCH   1   2
ATOM      2  C   UNL     1     -31.597  10.586   7.301  1.00  0.00    +0.047 C 
BRANCH   2   3
ATOM      3  C   UNL     1     -30.198  10.829   6.789  1.00  0.00    -0.047 A 
ATOM      4  C   UNL     1     -27.603  11.264   5.784  1.00  0.00    -0.051 A 
ATOM      5  C   UNL     1     -27.938  10.044   6.381  1.00  0.00    +0.004 A 
ATOM      6  C   UNL     1     -28.571  12.271   5.709  1.00  0.00    +0.004 A 
ATOM      7  C   UNL     1     -29.227   9.825   6.873  1.00  0.00    +0.004 A 
ATOM      8  C   UNL     1     -29.861  12.053   6.201  1.00  0.00    +0.004 A 
ATOM      9  C   UNL     1     -26.210  11.511   5.287  1.00  0.00    +0.044 C 
ENDBRANCH   2   3
ENDBRANCH   1   2
BRANCH   1  10
ATOM     10  C   UNL     1     -32.669   8.344   7.090  1.00  0.00    +0.303 C 
ATOM     11  O   UNL     1     -32.435   7.786   6.032  1.00  0.00    -0.252 OA
BRANCH  10  12
ATOM     12  O   UNL     1     -33.885   8.238   7.663  1.00  0.00    -0.481 OA
ATOM     13  H   UNL     1     -33.735   7.665   8.443  1.00  0.00    +0.296 HD
ENDBRANCH  10  12
ENDBRANCH   1  10
TORSDOF 4
ENDMDL
MODEL 3
REMARK VINA RESULT:    -6.278      2.400      3.587
REMARK INTER + INTRA:          -7.764
REMARK INTER:                  -7.572
REMARK INTRA:                  -0.192
REMARK UNBOUND:                -0.202
REMARK SMILES Cc1ccc(CCC(=O)O)cc1
REMARK SMILES IDX 7 1 6 2 5 3 2 4 3 5 12 6 4 7 11 8 1 9 8 10 9 11 10 12
REMARK H PARENT 10 13
ROOT
ATOM      1  C   UNL     1     -26.207   5.685   7.701  1.00  0.00    +0.127 C 
ENDROOT
BRANCH   1   2
ATOM      2  C   UNL     1     -27.350   6.634   8.050  1.00  0.00    +0.047 C 
BRANCH   2   3
ATOM      3  C   UNL     1     -27.247   7.929   7.282  1.00  0.00    -0.047 A 
ATOM      4  C   UNL     1     -27.023  10.366   5.888  1.00  0.00    -0.051 A 
ATOM      5  C   UNL     1     -28.063  10.164   6.802  1.00  0.00    +0.004 A 
ATOM      6  C   UNL     1     -26.106   9.334   5.664  1.00  0.00    +0.004 A 
ATOM      7  C   UNL     1     -28.170   8.959   7.498  1.00  0.00    +0.004 A 
ATOM      8  C   UNL     1     -26.212   8.128   6.360  1.00  0.00    +0.004 A 
ATOM      9  C   UNL     1     -26.928  11.648   5.114  1.00  0.00    +0.044 C 
ENDBRANCH   2   3
ENDBRANCH   1   2
BRANCH   1  10
ATOM     10  C   UNL     1     -25.885   4.784   8.858  1.00  0.00    +0.303 C 
ATOM     11  O   UNL     1     -25.021   3.926   8.916  1.00  0.00    -0.252 OA
BRANCH  10  12
ATOM     12  O   UNL     1     -26.689   5.015   9.916  1.00  0.00    -0.481 OA
ATOM     13  H   UNL     1     -27.206   5.806   9.657  1.00  0.00    +0.296 HD
ENDBRANCH  10  12
ENDBRANCH   1  10
TORSDOF 4
ENDMDL
MODEL 4
REMARK VINA RESULT:    -6.219      3.205      4.515
REMARK INTER + INTRA:          -7.693
REMARK INTER:                  -7.504
REMARK INTRA:                  -0.189
REMARK UNBOUND:                -0.202
REMARK SMILES Cc1ccc(CCC(=O)O)cc1
REMARK SMILES IDX 7 1 6 2 5 3 2 4 3 5 12 6 4 7 11 8 1 9 8 10 9 11 10 12
REMARK H PARENT 10 13
ROOT
ATOM      1  C   UNL     1     -28.033  11.652   6.057  1.00  0.00    +0.127 C 
ENDROOT
BRANCH   1   2
ATOM      2  C   UNL     1     -29.542  11.774   6.247  1.00  0.00    +0.047 C 
BRANCH   2   3
ATOM      3  C   UNL     1     -30.150  10.465   6.687  1.00  0.00    -0.047 A 
ATOM      4  C   UNL     1     -31.272   8.033   7.562  1.00  0.00    -0.051 A 
ATOM      5  C   UNL     1     -29.926   8.100   7.185  1.00  0.00    +0.004 A 
ATOM      6  C   UNL     1     -32.056   9.188   7.482  1.00  0.00    +0.004 A 
ATOM      7  C   UNL     1     -29.367   9.306   6.759  1.00  0.00    +0.004 A 
ATOM      8  C   UNL     1     -31.499  10.396   7.055  1.00  0.00    +0.004 A 
ATOM      9  C   UNL     1     -31.880   6.729   7.987  1.00  0.00    +0.044 C 
ENDBRANCH   2   3
ENDBRANCH   1   2
BRANCH   1  10
ATOM     10  C   UNL     1     -27.566  12.502   4.911  1.00  0.00    +0.303 C 
ATOM     11  O   UNL     1     -26.615  12.303   4.176  1.00  0.00    -0.252 OA
BRANCH  10  12
ATOM     12  O   UNL     1     -28.343  13.591   4.742  1.00  0.00    -0.481 OA
ATOM     13  H   UNL     1     -27.722  14.285   4.435  1.00  0.00    +0.296 HD
ENDBRANCH  10  12
ENDBRANCH   1  10
TORSDOF 4
ENDMDL
MODEL 5
REMARK VINA RESULT:    -6.071      4.536      7.404
REMARK INTER + INTRA:          -7.515
REMARK INTER:                  -7.272
REMARK INTRA:                  -0.243
REMARK UNBOUND:                -0.202
REMARK SMILES Cc1ccc(CCC(=O)O)cc1
REMARK SMILES IDX 7 1 6 2 5 3 2 4 3 5 12 6 4 7 11 8 1 9 8 10 9 11 10 12
REMARK H PARENT 10 13
ROOT
ATOM      1  C   UNL     1     -25.514   6.021   7.055  1.00  0.00    +0.127 C 
ENDROOT
BRANCH   1   2
ATOM      2  C   UNL     1     -26.435   5.836   8.258  1.00  0.00    +0.047 C 
BRANCH   2   3
ATOM      3  C   UNL     1     -26.035   4.635   9.080  1.00  0.00    -0.047 A 
ATOM      4  C   UNL     1     -25.256   2.376  10.572  1.00  0.00    -0.051 A 
ATOM      5  C   UNL     1     -26.377   2.323   9.736  1.00  0.00    +0.004 A 
ATOM      6  C   UNL     1     -24.538   3.572  10.668  1.00  0.00    +0.004 A 
ATOM      7  C   UNL     1     -26.759   3.440   8.990  1.00  0.00    +0.004 A 
ATOM      8  C   UNL     1     -24.920   4.691   9.923  1.00  0.00    +0.004 A 
ATOM      9  C   UNL     1     -24.867   1.187  11.399  1.00  0.00    +0.044 C 
ENDBRANCH   2   3
ENDBRANCH   1   2
BRANCH   1  10
ATOM     10  C   UNL     1     -24.952   7.413   7.019  1.00  0.00    +0.303 C 
ATOM     11  O   UNL     1     -25.074   8.242   6.135  1.00  0.00    -0.252 OA
BRANCH  10  12
ATOM     12  O   UNL     1     -24.243   7.699   8.130  1.00  0.00    -0.481 OA
ATOM     13  H   UNL     1     -24.722   7.234   8.848  1.00  0.00    +0.296 HD
ENDBRANCH  10  12
ENDBRANCH   1  10
TORSDOF 4
ENDMDL
MODEL 6
REMARK VINA RESULT:    -5.896      6.655      8.111
REMARK INTER + INTRA:          -7.304
REMARK INTER:                  -7.072
REMARK INTRA:                  -0.233
REMARK UNBOUND:                -0.202
REMARK SMILES Cc1ccc(CCC(=O)O)cc1
REMARK SMILES IDX 7 1 6 2 5 3 2 4 3 5 12 6 4 7 11 8 1 9 8 10 9 11 10 12
REMARK H PARENT 10 13
ROOT
ATOM      1  C   UNL     1     -35.004   4.419   7.866  1.00  0.00    +0.127 C 
ENDROOT
BRANCH   1   2
ATOM      2  C   UNL     1     -34.417   4.749   6.497  1.00  0.00    +0.047 C 
BRANCH   2   3
ATOM      3  C   UNL     1     -33.381   5.843   6.589  1.00  0.00    -0.047 A 
ATOM      4  C   UNL     1     -31.409   7.848   6.744  1.00  0.00    -0.051 A 
ATOM      5  C   UNL     1     -31.681   7.034   7.848  1.00  0.00    +0.004 A 
ATOM      6  C   UNL     1     -32.142   7.663   5.567  1.00  0.00    +0.004 A 
ATOM      7  C   UNL     1     -32.654   6.034   7.770  1.00  0.00    +0.004 A 
ATOM      8  C   UNL     1     -33.116   6.664   5.487  1.00  0.00    +0.004 A 
ATOM      9  C   UNL     1     -30.389   8.944   6.839  1.00  0.00    +0.044 C 
ENDBRANCH   2   3
ENDBRANCH   1   2
BRANCH   1  10
ATOM     10  C   UNL     1     -34.760   2.981   8.222  1.00  0.00    +0.303 C 
ATOM     11  O   UNL     1     -33.723   2.478   8.617  1.00  0.00    -0.252 OA
BRANCH  10  12
ATOM     12  O   UNL     1     -35.866   2.227   8.059  1.00  0.00    -0.481 OA
ATOM     13  H   UNL     1     -36.400   2.722   7.403  1.00  0.00    +0.296 HD
ENDBRANCH  10  12
ENDBRANCH   1  10
TORSDOF 4
ENDMDL
MODEL 7
REMARK VINA RESULT:    -5.774      3.732      5.438
REMARK INTER + INTRA:          -7.157
REMARK INTER:                  -6.922
REMARK INTRA:                  -0.235
REMARK UNBOUND:                -0.202
REMARK SMILES Cc1ccc(CCC(=O)O)cc1
REMARK SMILES IDX 7 1 6 2 5 3 2 4 3 5 12 6 4 7 11 8 1 9 8 10 9 11 10 12
REMARK H PARENT 10 13
ROOT
ATOM      1  C   UNL     1     -26.624   3.495   9.154  1.00  0.00    +0.127 C 
ENDROOT
BRANCH   1   2
ATOM      2  C   UNL     1     -25.597   4.622   9.098  1.00  0.00    +0.047 C 
BRANCH   2   3
ATOM      3  C   UNL     1     -26.103   5.791   8.290  1.00  0.00    -0.047 A 
ATOM      4  C   UNL     1     -27.031   8.010   6.823  1.00  0.00    -0.051 A 
ATOM      5  C   UNL     1     -27.873   7.354   7.727  1.00  0.00    +0.004 A 
ATOM      6  C   UNL     1     -25.726   7.537   6.646  1.00  0.00    +0.004 A 
ATOM      7  C   UNL     1     -27.412   6.259   8.461  1.00  0.00    +0.004 A 
ATOM      8  C   UNL     1     -25.263   6.441   7.379  1.00  0.00    +0.004 A 
ATOM      9  C   UNL     1     -27.537   9.165   6.011  1.00  0.00    +0.044 C 
ENDBRANCH   2   3
ENDBRANCH   1   2
BRANCH   1  10
ATOM     10  C   UNL     1     -27.076   3.249  10.564  1.00  0.00    +0.303 C 
ATOM     11  O   UNL     1     -27.869   2.411  10.956  1.00  0.00    -0.252 OA
BRANCH  10  12
ATOM     12  O   UNL     1     -26.491   4.095  11.435  1.00  0.00    -0.481 OA
ATOM     13  H   UNL     1     -26.088   3.507  12.109  1.00  0.00    +0.296 HD
ENDBRANCH  10  12
ENDBRANCH   1  10
TORSDOF 4
ENDMDL
MODEL 8
REMARK VINA RESULT:    -5.658      4.929      6.263
REMARK INTER + INTRA:          -7.017
REMARK INTER:                  -6.890
REMARK INTRA:                  -0.128
REMARK UNBOUND:                -0.202
REMARK SMILES Cc1ccc(CCC(=O)O)cc1
REMARK SMILES IDX 7 1 6 2 5 3 2 4 3 5 12 6 4 7 11 8 1 9 8 10 9 11 10 12
REMARK H PARENT 10 13
ROOT
ATOM      1  C   UNL     1     -33.073   6.263   8.202  1.00  0.00    +0.127 C 
ENDROOT
BRANCH   1   2
ATOM      2  C   UNL     1     -31.691   6.441   7.582  1.00  0.00    +0.047 C 
BRANCH   2   3
ATOM      3  C   UNL     1     -31.308   7.898   7.494  1.00  0.00    -0.047 A 
ATOM      4  C   UNL     1     -30.610  10.619   7.276  1.00  0.00    -0.051 A 
ATOM      5  C   UNL     1     -29.667   9.620   7.013  1.00  0.00    +0.004 A 
ATOM      6  C   UNL     1     -31.901  10.246   7.666  1.00  0.00    +0.004 A 
ATOM      7  C   UNL     1     -30.014   8.271   7.113  1.00  0.00    +0.004 A 
ATOM      8  C   UNL     1     -32.250   8.897   7.767  1.00  0.00    +0.004 A 
ATOM      9  C   UNL     1     -30.227  12.067   7.201  1.00  0.00    +0.044 C 
ENDBRANCH   2   3
ENDBRANCH   1   2
BRANCH   1  10
ATOM     10  C   UNL     1     -34.122   6.106   7.140  1.00  0.00    +0.303 C 
ATOM     11  O   UNL     1     -34.090   5.375   6.165  1.00  0.00    -0.252 OA
BRANCH  10  12
ATOM     12  O   UNL     1     -35.189   6.899   7.364  1.00  0.00    -0.481 OA
ATOM     13  H   UNL     1     -35.934   6.428   6.934  1.00  0.00    +0.296 HD
ENDBRANCH  10  12
ENDBRANCH   1  10
TORSDOF 4
ENDMDL
MODEL 9
REMARK VINA RESULT:    -5.519      9.892     11.818
REMARK INTER + INTRA:          -6.851
REMARK INTER:                  -6.635
REMARK INTRA:                  -0.216
REMARK UNBOUND:                -0.202
REMARK SMILES Cc1ccc(CCC(=O)O)cc1
REMARK SMILES IDX 7 1 6 2 5 3 2 4 3 5 12 6 4 7 11 8 1 9 8 10 9 11 10 12
REMARK H PARENT 10 13
ROOT
ATOM      1  C   UNL     1     -37.429   5.760  11.069  1.00  0.00    +0.127 C 
ENDROOT
BRANCH   1   2
ATOM      2  C   UNL     1     -37.251   4.244  11.074  1.00  0.00    +0.047 C 
BRANCH   2   3
ATOM      3  C   UNL     1     -35.834   3.854  10.731  1.00  0.00    -0.047 A 
ATOM      4  C   UNL     1     -33.198   3.142  10.036  1.00  0.00    -0.051 A 
ATOM      5  C   UNL     1     -34.237   2.210   9.931  1.00  0.00    +0.004 A 
ATOM      6  C   UNL     1     -33.486   4.427  10.506  1.00  0.00    +0.004 A 
ATOM      7  C   UNL     1     -35.545   2.564  10.268  1.00  0.00    +0.004 A 
ATOM      8  C   UNL     1     -34.794   4.783  10.844  1.00  0.00    +0.004 A 
ATOM      9  C   UNL     1     -31.788   2.750   9.706  1.00  0.00    +0.044 C 
ENDBRANCH   2   3
ENDBRANCH   1   2
BRANCH   1  10
ATOM     10  C   UNL     1     -38.338   6.189   9.953  1.00  0.00    +0.303 C 
ATOM     11  O   UNL     1     -38.019   6.599   8.850  1.00  0.00    -0.252 OA
BRANCH  10  12
ATOM     12  O   UNL     1     -39.638   6.078  10.291  1.00  0.00    -0.481 OA
ATOM     13  H   UNL     1     -39.990   6.988  10.197  1.00  0.00    +0.296 HD
ENDBRANCH  10  12
ENDBRANCH   1  10
TORSDOF 4
ENDMDL
