MODEL 1
REMARK VINA RESULT:    -5.017      0.000      0.000
REMARK INTER + INTRA:          -6.147
REMARK INTER:                  -5.896
REMARK INTRA:                  -0.251
REMARK UNBOUND:                -0.251
REMARK SMILES CC(=O)O[C@@H](C)C(C)C
REMARK SMILES IDX 5 1 6 2 7 3 8 4 9 5 4 6 2 7 3 8 1 9
REMARK H PARENT
ROOT
ATOM      1  C   UNL     1     -28.244  10.414   6.658  1.00  0.00    +0.176 C 
ATOM      2  C   UNL     1     -26.923  10.608   5.915  1.00  0.00    +0.053 C 
ENDROOT
BRANCH   1   3
ATOM      3  C   UNL     1     -29.350  11.422   6.266  1.00  0.00    +0.023 C 
ATOM      4  C   UNL     1     -28.813  12.660   5.541  1.00  0.00    +0.011 C 
ATOM      5  C   UNL     1     -30.198  11.842   7.467  1.00  0.00    +0.011 C 
ENDBRANCH   1   3
BRANCH   1   6
ATOM      6  O   UNL     1     -28.745   9.089   6.374  1.00  0.00    -0.463 OA
BRANCH   6   7
ATOM      7  C   UNL     1     -28.937   8.269   7.443  1.00  0.00    +0.302 C 
ATOM      8  O   UNL     1     -28.078   7.916   8.238  1.00  0.00    -0.253 OA
ATOM      9  C   UNL     1     -30.374   7.850   7.510  1.00  0.00    +0.139 C 
ENDBRANCH   6   7
ENDBRANCH   1   6
TORSDOF 3
ENDMDL
MODEL 2
REMARK VINA RESULT:    -5.003      1.555      2.709
REMARK INTER + INTRA:          -6.132
REMARK INTER:                  -5.881
REMARK INTRA:                  -0.251
REMARK UNBOUND:                -0.251
REMARK SMILES CC(=O)O[C@@H](C)C(C)C
REMARK SMILES IDX 5 1 6 2 7 3 8 4 9 5 4 6 2 7 3 8 1 9
REMARK H PARENT
ROOT
ATOM      1  C   UNL     1     -28.990   9.769   6.775  1.00  0.00    +0.176 C 
ATOM      2  C   UNL     1     -30.140   8.827   7.129  1.00  0.00    +0.053 C 
ENDROOT
BRANCH   1   3
ATOM      3  C   UNL     1     -29.276  11.261   7.067  1.00  0.00    +0.023 C 
ATOM      4  C   UNL     1     -30.660  11.506   7.677  1.00  0.00    +0.011 C 
ATOM      5  C   UNL     1     -29.086  12.137   5.827  1.00  0.00    +0.011 C 
ENDBRANCH   1   3
BRANCH   1   6
ATOM      6  O   UNL     1     -27.828   9.393   7.547  1.00  0.00    -0.463 OA
BRANCH   6   7
ATOM      7  C   UNL     1     -26.651   9.303   6.868  1.00  0.00    +0.302 C 
ATOM      8  O   UNL     1     -25.542   9.542   7.324  1.00  0.00    -0.253 OA
ATOM      9  C   UNL     1     -26.909   8.865   5.460  1.00  0.00    +0.139 C 
ENDBRANCH   6   7
ENDBRANCH   1   6
TORSDOF 3
ENDMDL
MODEL 3
REMARK VINA RESULT:    -4.994      1.786      3.210
REMARK INTER + INTRA:          -6.120
REMARK INTER:                  -5.938
REMARK INTRA:                  -0.183
REMARK UNBOUND:                -0.251
REMARK SMILES CC(=O)O[C@@H](C)C(C)C
REMARK SMILES IDX 5 1 6 2 7 3 8 4 9 5 4 6 2 7 3 8 1 9
REMARK H PARENT
ROOT
ATOM      1  C   UNL     1     -28.389  11.671   6.192  1.00  0.00    +0.176 C 
ATOM      2  C   UNL     1     -28.474  12.879   5.262  1.00  0.00    +0.053 C 
ENDROOT
BRANCH   1   3
ATOM      3  C   UNL     1     -29.762  11.082   6.597  1.00  0.00    +0.023 C 
ATOM      4  C   UNL     1     -30.478  11.899   7.677  1.00  0.00    +0.011 C 
ATOM      5  C   UNL     1     -29.654   9.619   7.030  1.00  0.00    +0.011 C 
ENDBRANCH   1   3
BRANCH   1   6
ATOM      6  O   UNL     1     -27.649  10.623   5.526  1.00  0.00    -0.463 OA
BRANCH   6   7
ATOM      7  C   UNL     1     -26.309  10.586   5.756  1.00  0.00    +0.302 C 
ATOM      8  O   UNL     1     -25.480  11.351   5.284  1.00  0.00    -0.253 OA
ATOM      9  C   UNL     1     -25.984   9.455   6.683  1.00  0.00    +0.139 C 
ENDBRANCH   6   7
ENDBRANCH   1   6
TORSDOF 3
ENDMDL
MODEL 4
REMARK VINA RESULT:    -4.833      2.054      4.248
REMARK INTER + INTRA:          -5.932
REMARK INTER:                  -5.694
REMARK INTRA:                  -0.238
REMARK UNBOUND:                -0.251
REMARK SMILES CC(=O)O[C@@H](C)C(C)C
REMARK SMILES IDX 5 1 6 2 7 3 8 4 9 5 4 6 2 7 3 8 1 9
REMARK H PARENT
ROOT
ATOM      1  C   UNL     1     -28.942  10.987   6.809  1.00  0.00    +0.176 C 
ATOM      2  C   UNL     1     -30.151  11.570   7.539  1.00  0.00    +0.053 C 
ENDROOT
BRANCH   1   3
ATOM      3  C   UNL     1     -28.984   9.450   6.633  1.00  0.00    +0.023 C 
ATOM      4  C   UNL     1     -30.305   8.823   7.090  1.00  0.00    +0.011 C 
ATOM      5  C   UNL     1     -27.807   8.761   7.325  1.00  0.00    +0.011 C 
ENDBRANCH   1   3
BRANCH   1   6
ATOM      6  O   UNL     1     -28.873  11.571   5.489  1.00  0.00    -0.463 OA
BRANCH   6   7
ATOM      7  C   UNL     1     -27.888  12.487   5.281  1.00  0.00    +0.302 C 
ATOM      8  O   UNL     1     -28.051  13.688   5.115  1.00  0.00    -0.253 OA
ATOM      9  C   UNL     1     -26.553  11.808   5.283  1.00  0.00    +0.139 C 
ENDBRANCH   6   7
ENDBRANCH   1   6
TORSDOF 3
ENDMDL
MODEL 5
REMARK VINA RESULT:    -4.671      1.989      3.916
REMARK INTER + INTRA:          -5.742
REMARK INTER:                  -5.555
REMARK INTRA:                  -0.187
REMARK UNBOUND:                -0.251
REMARK SMILES CC(=O)O[C@@H](C)C(C)C
REMARK SMILES IDX 5 1 6 2 7 3 8 4 9 5 4 6 2 7 3 8 1 9
REMARK H PARENT
ROOT
ATOM      1  C   UNL     1     -27.264   9.505   5.961  1.00  0.00    +0.176 C 
ATOM      2  C   UNL     1     -26.004   8.858   6.536  1.00  0.00    +0.053 C 
ENDROOT
BRANCH   1   3
ATOM      3  C   UNL     1     -28.585   8.978   6.570  1.00  0.00    +0.023 C 
ATOM      4  C   UNL     1     -29.528  10.093   7.031  1.00  0.00    +0.011 C 
ATOM      5  C   UNL     1     -28.338   7.992   7.714  1.00  0.00    +0.011 C 
ENDBRANCH   1   3
BRANCH   1   6
ATOM      6  O   UNL     1     -27.210  10.927   6.211  1.00  0.00    -0.463 OA
BRANCH   6   7
ATOM      7  C   UNL     1     -26.920  11.720   5.145  1.00  0.00    +0.302 C 
ATOM      8  O   UNL     1     -26.049  11.512   4.312  1.00  0.00    -0.253 OA
ATOM      9  C   UNL     1     -27.833  12.908   5.133  1.00  0.00    +0.139 C 
ENDBRANCH   6   7
ENDBRANCH   1   6
TORSDOF 3
ENDMDL
MODEL 6
REMARK VINA RESULT:    -4.603      2.750      4.878
REMARK INTER + INTRA:          -5.662
REMARK INTER:                  -5.459
REMARK INTRA:                  -0.203
REMARK UNBOUND:                -0.251
REMARK SMILES CC(=O)O[C@@H](C)C(C)C
REMARK SMILES IDX 5 1 6 2 7 3 8 4 9 5 4 6 2 7 3 8 1 9
REMARK H PARENT
ROOT
ATOM      1  C   UNL     1     -25.915   7.709   6.373  1.00  0.00    +0.176 C 
ATOM      2  C   UNL     1     -24.674   8.422   6.907  1.00  0.00    +0.053 C 
ENDROOT
BRANCH   1   3
ATOM      3  C   UNL     1     -26.387   6.518   7.241  1.00  0.00    +0.023 C 
ATOM      4  C   UNL     1     -27.613   6.842   8.100  1.00  0.00    +0.011 C 
ATOM      5  C   UNL     1     -25.263   5.963   8.117  1.00  0.00    +0.011 C 
ENDBRANCH   1   3
BRANCH   1   6
ATOM      6  O   UNL     1     -27.004   8.657   6.311  1.00  0.00    -0.463 OA
BRANCH   6   7
ATOM      7  C   UNL     1     -26.963   9.562   5.296  1.00  0.00    +0.302 C 
ATOM      8  O   UNL     1     -26.639   9.329   4.141  1.00  0.00    -0.253 OA
ATOM      9  C   UNL     1     -27.375  10.911   5.802  1.00  0.00    +0.139 C 
ENDBRANCH   6   7
ENDBRANCH   1   6
TORSDOF 3
ENDMDL
MODEL 7
REMARK VINA RESULT:    -4.589      2.235      3.140
REMARK INTER + INTRA:          -5.644
REMARK INTER:                  -5.363
REMARK INTRA:                  -0.282
REMARK UNBOUND:                -0.251
REMARK SMILES CC(=O)O[C@@H](C)C(C)C
REMARK SMILES IDX 5 1 6 2 7 3 8 4 9 5 4 6 2 7 3 8 1 9
REMARK H PARENT
ROOT
ATOM      1  C   UNL     1     -31.062   9.909   7.100  1.00  0.00    +0.176 C 
ATOM      2  C   UNL     1     -32.099  10.396   8.110  1.00  0.00    +0.053 C 
ENDROOT
BRANCH   1   3
ATOM      3  C   UNL     1     -29.737  10.708   7.112  1.00  0.00    +0.023 C 
ATOM      4  C   UNL     1     -29.777  11.964   6.235  1.00  0.00    +0.011 C 
ATOM      5  C   UNL     1     -28.538   9.838   6.729  1.00  0.00    +0.011 C 
ENDBRANCH   1   3
BRANCH   1   6
ATOM      6  O   UNL     1     -30.739   8.532   7.395  1.00  0.00    -0.463 OA
BRANCH   6   7
ATOM      7  C   UNL     1     -31.673   7.602   7.055  1.00  0.00    +0.302 C 
ATOM      8  O   UNL     1     -32.204   6.808   7.818  1.00  0.00    -0.253 OA
ATOM      9  C   UNL     1     -31.964   7.688   5.588  1.00  0.00    +0.139 C 
ENDBRANCH   6   7
ENDBRANCH   1   6
TORSDOF 3
ENDMDL
MODEL 8
REMARK VINA RESULT:    -4.560      2.530      3.355
REMARK INTER + INTRA:          -5.611
REMARK INTER:                  -5.613
REMARK INTRA:                   0.001
REMARK UNBOUND:                -0.251
REMARK SMILES CC(=O)O[C@@H](C)C(C)C
REMARK SMILES IDX 5 1 6 2 7 3 8 4 9 5 4 6 2 7 3 8 1 9
REMARK H PARENT
ROOT
ATOM      1  C   UNL     1     -27.240   8.941   6.408  1.00  0.00    +0.176 C 
ATOM      2  C   UNL     1     -28.426   8.642   7.323  1.00  0.00    +0.053 C 
ENDROOT
BRANCH   1   3
ATOM      3  C   UNL     1     -27.349  10.279   5.638  1.00  0.00    +0.023 C 
ATOM      4  C   UNL     1     -26.053  11.095   5.653  1.00  0.00    +0.011 C 
ATOM      5  C   UNL     1     -28.515  11.135   6.137  1.00  0.00    +0.011 C 
ENDBRANCH   1   3
BRANCH   1   6
ATOM      6  O   UNL     1     -26.039   9.000   7.209  1.00  0.00    -0.463 OA
BRANCH   6   7
ATOM      7  C   UNL     1     -25.060   8.105   6.905  1.00  0.00    +0.302 C 
ATOM      8  O   UNL     1     -24.000   8.364   6.354  1.00  0.00    -0.253 OA
ATOM      9  C   UNL     1     -25.472   6.733   7.343  1.00  0.00    +0.139 C 
ENDBRANCH   6   7
ENDBRANCH   1   6
TORSDOF 3
ENDMDL
MODEL 9
REMARK VINA RESULT:    -4.422      5.207      6.790
REMARK INTER + INTRA:          -5.448
REMARK INTER:                  -5.216
REMARK INTRA:                  -0.232
REMARK UNBOUND:                -0.251
REMARK SMILES CC(=O)O[C@@H](C)C(C)C
REMARK SMILES IDX 5 1 6 2 7 3 8 4 9 5 4 6 2 7 3 8 1 9
REMARK H PARENT
ROOT
ATOM      1  C   UNL     1     -33.848   6.226   6.592  1.00  0.00    +0.176 C 
ATOM      2  C   UNL     1     -34.060   6.172   5.080  1.00  0.00    +0.053 C 
ENDROOT
BRANCH   1   3
ATOM      3  C   UNL     1     -32.720   7.184   7.043  1.00  0.00    +0.023 C 
ATOM      4  C   UNL     1     -31.874   7.715   5.881  1.00  0.00    +0.011 C 
ATOM      5  C   UNL     1     -31.817   6.550   8.102  1.00  0.00    +0.011 C 
ENDBRANCH   1   3
BRANCH   1   6
ATOM      6  O   UNL     1     -35.072   6.676   7.216  1.00  0.00    -0.463 OA
BRANCH   6   7
ATOM      7  C   UNL     1     -35.538   5.926   8.250  1.00  0.00    +0.302 C 
ATOM      8  O   UNL     1     -36.245   6.326   9.164  1.00  0.00    -0.253 OA
ATOM      9  C   UNL     1     -35.054   4.515   8.113  1.00  0.00    +0.139 C 
ENDBRANCH   6   7
ENDBRANCH   1   6
TORSDOF 3
ENDMDL
