MODEL 1
REMARK VINA RESULT:    -3.857      0.000      0.000
REMARK INTER + INTRA:          -3.857
REMARK INTER:                  -3.857
REMARK INTRA:                   0.000
REMARK UNBOUND:                 0.000
REMARK SMILES Ic1cccs1
REMARK SMILES IDX 1 1 2 2 3 3 4 4 5 5 6 6
REMARK H PARENT
ROOT
ATOM      1  I   UNL     1     -29.844   9.430   6.944  1.00  0.00    -0.032 I 
ATOM      2  C   UNL     1     -28.645  10.912   6.081  1.00  0.00    +0.065 A 
ATOM      3  C   UNL     1     -29.080  12.188   5.818  1.00  0.00    +0.026 A 
ATOM      4  C   UNL     1     -28.044  12.975   5.230  1.00  0.00    +0.013 A 
ATOM      5  C   UNL     1     -26.875  12.259   5.074  1.00  0.00    +0.066 A 
ATOM      6  S   UNL     1     -27.031  10.648   5.638  1.00  0.00    -0.138 S 
ENDROOT
TORSDOF 0
ENDMDL
MODEL 2
REMARK VINA RESULT:    -3.845      1.894      2.319
REMARK INTER + INTRA:          -3.845
REMARK INTER:                  -3.845
REMARK INTRA:                   0.000
REMARK UNBOUND:                 0.000
REMARK SMILES Ic1cccs1
REMARK SMILES IDX 1 1 2 2 3 3 4 4 5 5 6 6
REMARK H PARENT
ROOT
ATOM      1  I   UNL     1     -26.797   8.642   6.525  1.00  0.00    -0.032 I 
ATOM      2  C   UNL     1     -28.003  10.332   6.268  1.00  0.00    +0.065 A 
ATOM      3  C   UNL     1     -27.635  11.427   5.526  1.00  0.00    +0.026 A 
ATOM      4  C   UNL     1     -28.658  12.422   5.532  1.00  0.00    +0.013 A 
ATOM      5  C   UNL     1     -29.753  12.035   6.277  1.00  0.00    +0.066 A 
ATOM      6  S   UNL     1     -29.542  10.478   6.963  1.00  0.00    -0.138 S 
ENDROOT
TORSDOF 0
ENDMDL
MODEL 3
REMARK VINA RESULT:    -3.555      1.815      2.200
REMARK INTER + INTRA:          -3.555
REMARK INTER:                  -3.555
REMARK INTRA:                   0.000
REMARK UNBOUND:                 0.000
REMARK SMILES Ic1cccs1
REMARK SMILES IDX 1 1 2 2 3 3 4 4 5 5 6 6
REMARK H PARENT
ROOT
ATOM      1  I   UNL     1     -31.571   8.114   7.310  1.00  0.00    -0.032 I 
ATOM      2  C   UNL     1     -30.305   9.699   6.798  1.00  0.00    +0.065 A 
ATOM      3  C   UNL     1     -30.739  10.982   6.577  1.00  0.00    +0.026 A 
ATOM      4  C   UNL     1     -29.652  11.845   6.246  1.00  0.00    +0.013 A 
ATOM      5  C   UNL     1     -28.445  11.176   6.230  1.00  0.00    +0.066 A 
ATOM      6  S   UNL     1     -28.630   9.516   6.615  1.00  0.00    -0.138 S 
ENDROOT
TORSDOF 0
ENDMDL
MODEL 4
REMARK VINA RESULT:    -3.532      6.492      7.426
REMARK INTER + INTRA:          -3.532
REMARK INTER:                  -3.532
REMARK INTRA:                   0.000
REMARK UNBOUND:                 0.000
REMARK SMILES Ic1cccs1
REMARK SMILES IDX 1 1 2 2 3 3 4 4 5 5 6 6
REMARK H PARENT
ROOT
ATOM      1  I   UNL     1     -31.217   8.610   7.025  1.00  0.00    -0.032 I 
ATOM      2  C   UNL     1     -32.572   7.106   6.496  1.00  0.00    +0.065 A 
ATOM      3  C   UNL     1     -32.951   6.841   5.203  1.00  0.00    +0.026 A 
ATOM      4  C   UNL     1     -33.884   5.763   5.150  1.00  0.00    +0.013 A 
ATOM      5  C   UNL     1     -34.169   5.261   6.403  1.00  0.00    +0.066 A 
ATOM      6  S   UNL     1     -33.311   6.091   7.634  1.00  0.00    -0.138 S 
ENDROOT
TORSDOF 0
ENDMDL
MODEL 5
REMARK VINA RESULT:    -3.494      2.459      3.100
REMARK INTER + INTRA:          -3.494
REMARK INTER:                  -3.494
REMARK INTRA:                   0.000
REMARK UNBOUND:                 0.000
REMARK SMILES Ic1cccs1
REMARK SMILES IDX 1 1 2 2 3 3 4 4 5 5 6 6
REMARK H PARENT
ROOT
ATOM      1  I   UNL     1     -26.827   9.469   5.912  1.00  0.00    -0.032 I 
ATOM      2  C   UNL     1     -28.644  10.386   6.399  1.00  0.00    +0.065 A 
ATOM      3  C   UNL     1     -29.637   9.775   7.125  1.00  0.00    +0.026 A 
ATOM      4  C   UNL     1     -30.756  10.643   7.300  1.00  0.00    +0.013 A 
ATOM      5  C   UNL     1     -30.559  11.871   6.701  1.00  0.00    +0.066 A 
ATOM      6  S   UNL     1     -29.030  11.969   5.933  1.00  0.00    -0.138 S 
ENDROOT
TORSDOF 0
ENDMDL
MODEL 6
REMARK VINA RESULT:    -3.392     11.581     12.305
REMARK INTER + INTRA:          -3.392
REMARK INTER:                  -3.392
REMARK INTRA:                   0.000
REMARK UNBOUND:                 0.000
REMARK SMILES Ic1cccs1
REMARK SMILES IDX 1 1 2 2 3 3 4 4 5 5 6 6
REMARK H PARENT
ROOT
ATOM      1  I   UNL     1     -25.495   3.605  11.092  1.00  0.00    -0.032 I 
ATOM      2  C   UNL     1     -24.149   2.012  10.925  1.00  0.00    +0.065 A 
ATOM      3  C   UNL     1     -22.787   2.168  10.849  1.00  0.00    +0.026 A 
ATOM      4  C   UNL     1     -22.128   0.907  10.742  1.00  0.00    +0.013 A 
ATOM      5  C   UNL     1     -23.020  -0.146  10.742  1.00  0.00    +0.066 A 
ATOM      6  S   UNL     1     -24.643   0.391  10.872  1.00  0.00    -0.138 S 
ENDROOT
TORSDOF 0
ENDMDL
MODEL 7
REMARK VINA RESULT:    -3.359     10.682     11.210
REMARK INTER + INTRA:          -3.359
REMARK INTER:                  -3.359
REMARK INTRA:                   0.000
REMARK UNBOUND:                 0.000
REMARK SMILES Ic1cccs1
REMARK SMILES IDX 1 1 2 2 3 3 4 4 5 5 6 6
REMARK H PARENT
ROOT
ATOM      1  I   UNL     1     -22.694   1.239  10.487  1.00  0.00    -0.032 I 
ATOM      2  C   UNL     1     -24.436   2.226  11.095  1.00  0.00    +0.065 A 
ATOM      3  C   UNL     1     -24.639   3.576  10.948  1.00  0.00    +0.026 A 
ATOM      4  C   UNL     1     -25.916   3.964  11.454  1.00  0.00    +0.013 A 
ATOM      5  C   UNL     1     -26.621   2.891  11.959  1.00  0.00    +0.066 A 
ATOM      6  S   UNL     1     -25.742   1.426  11.821  1.00  0.00    -0.138 S 
ENDROOT
TORSDOF 0
ENDMDL
MODEL 8
REMARK VINA RESULT:    -3.308     11.349     11.720
REMARK INTER + INTRA:          -3.308
REMARK INTER:                  -3.308
REMARK INTRA:                   0.000
REMARK UNBOUND:                 0.000
REMARK SMILES Ic1cccs1
REMARK SMILES IDX 1 1 2 2 3 3 4 4 5 5 6 6
REMARK H PARENT
ROOT
ATOM      1  I   UNL     1     -34.430   4.705  11.058  1.00  0.00    -0.032 I 
ATOM      2  C   UNL     1     -36.334   5.146  10.311  1.00  0.00    +0.065 A 
ATOM      3  C   UNL     1     -37.046   6.270  10.652  1.00  0.00    +0.026 A 
ATOM      4  C   UNL     1     -38.309   6.302   9.988  1.00  0.00    +0.013 A 
ATOM      5  C   UNL     1     -38.496   5.202   9.176  1.00  0.00    +0.066 A 
ATOM      6  S   UNL     1     -37.150   4.141   9.218  1.00  0.00    -0.138 S 
ENDROOT
TORSDOF 0
ENDMDL
MODEL 9
REMARK VINA RESULT:    -3.216      6.594      7.375
REMARK INTER + INTRA:          -3.216
REMARK INTER:                  -3.216
REMARK INTRA:                   0.000
REMARK UNBOUND:                 0.000
REMARK SMILES Ic1cccs1
REMARK SMILES IDX 1 1 2 2 3 3 4 4 5 5 6 6
REMARK H PARENT
ROOT
ATOM      1  I   UNL     1     -33.974   4.713   8.896  1.00  0.00    -0.032 I 
ATOM      2  C   UNL     1     -33.424   5.843   7.222  1.00  0.00    +0.065 A 
ATOM      3  C   UNL     1     -34.004   5.706   5.985  1.00  0.00    +0.026 A 
ATOM      4  C   UNL     1     -33.425   6.607   5.042  1.00  0.00    +0.013 A 
ATOM      5  C   UNL     1     -32.435   7.384   5.607  1.00  0.00    +0.066 A 
ATOM      6  S   UNL     1     -32.209   7.024   7.268  1.00  0.00    -0.138 S 
ENDROOT
TORSDOF 0
ENDMDL
