REMARK SMILES CC(=O)O[C@H]1[C@H]2O[C@H](OC[C@@H]2OC(C)=O)[C@@H]1OC(C)=O
REMARK SMILES IDX 11 1 10 2 9 3 8 4 7 5 6 6 5 7 16 8 12 9 13 10 15 11 14 12
REMARK SMILES IDX 4 13 2 14 3 15 1 16 17 17 18 18 20 19 19 20
REMARK H PARENT
ROOT
ATOM      1  C   UNL     1       1.559  -0.429  -0.490  1.00  0.00    +0.235 C 
ATOM      2  C   UNL     1       0.826  -1.765  -0.681  1.00  0.00    +0.211 C 
ATOM      3  O   UNL     1       0.162  -2.224   0.501  1.00  0.00    -0.345 OA
ATOM      4  C   UNL     1      -0.479  -1.198   1.266  1.00  0.00    +0.296 C 
ATOM      5  O   UNL     1       0.485  -0.207   1.637  1.00  0.00    -0.337 OA
ATOM      6  C   UNL     1       0.705   0.498   0.393  1.00  0.00    +0.209 C 
ATOM      7  C   UNL     1      -0.706   0.692  -0.192  1.00  0.00    +0.255 C 
ATOM      8  C   UNL     1      -1.541  -0.390   0.507  1.00  0.00    +0.276 C 
ENDROOT
BRANCH   1   9
ATOM      9  O   UNL     1       2.819  -0.723   0.159  1.00  0.00    -0.457 OA
BRANCH   9  10
ATOM     10  C   UNL     1       3.744   0.272   0.141  1.00  0.00    +0.303 C 
ATOM     11  O   UNL     1       3.602   1.356  -0.404  1.00  0.00    -0.253 OA
ATOM     12  C   UNL     1       4.972  -0.152   0.885  1.00  0.00    +0.139 C 
ENDBRANCH   9  10
ENDBRANCH   1   9
BRANCH   7  13
ATOM     13  O   UNL     1      -1.239   1.982   0.180  1.00  0.00    -0.455 OA
BRANCH  13  14
ATOM     14  C   UNL     1      -0.801   3.019  -0.586  1.00  0.00    +0.303 C 
ATOM     15  O   UNL     1      -0.039   2.911  -1.534  1.00  0.00    -0.253 OA
ATOM     16  C   UNL     1      -1.389   4.308  -0.101  1.00  0.00    +0.139 C 
ENDBRANCH  13  14
ENDBRANCH   7  13
BRANCH   8  17
ATOM     17  O   UNL     1      -2.291  -1.152  -0.449  1.00  0.00    -0.453 OA
BRANCH  17  18
ATOM     18  C   UNL     1      -3.149  -2.054   0.102  1.00  0.00    +0.303 C 
ATOM     19  O   UNL     1      -3.337  -2.204   1.300  1.00  0.00    -0.253 OA
ATOM     20  C   UNL     1      -3.839  -2.835  -0.974  1.00  0.00    +0.139 C 
ENDBRANCH  17  18
ENDBRANCH   8  17
TORSDOF 6
