MODEL 1
REMARK VINA RESULT:    -5.062      0.000      0.000
REMARK INTER + INTRA:          -7.413
REMARK INTER:                  -6.838
REMARK INTRA:                  -0.575
REMARK UNBOUND:                -0.575
REMARK SMILES O=C[C@@H](O)[C@@H](O)[C@H](O)CO
REMARK SMILES IDX 7 1 9 2 10 3 8 5 5 7 6 8 3 10 4 11 2 13 1 14
REMARK H PARENT 10 4 8 6 6 9 4 12
ROOT
ATOM      1  C   UNL     1     -34.124  -1.962  -1.842  1.00  0.00    +0.171 C 
ENDROOT
BRANCH   1   2
ATOM      2  C   UNL     1     -33.698  -0.843  -2.802  1.00  0.00    +0.190 C 
BRANCH   2   3
ATOM      3  O   UNL     1     -32.272  -0.778  -2.839  1.00  0.00    -0.394 OA
ATOM      4  H   UNL     1     -31.970  -1.593  -2.390  1.00  0.00    +0.210 HD
ENDBRANCH   2   3
ENDBRANCH   1   2
BRANCH   1   5
ATOM      5  O   UNL     1     -33.190  -3.040  -2.045  1.00  0.00    -0.388 OA
ATOM      6  H   UNL     1     -33.509  -3.803  -1.510  1.00  0.00    +0.211 HD
ENDBRANCH   1   5
BRANCH   1   7
ATOM      7  C   UNL     1     -34.073  -1.483  -0.381  1.00  0.00    +0.181 C 
BRANCH   7   8
ATOM      8  O   UNL     1     -32.950  -0.604  -0.170  1.00  0.00    -0.387 OA
ATOM      9  H   UNL     1     -32.881  -0.488   0.803  1.00  0.00    +0.211 HD
ENDBRANCH   7   8
BRANCH   7  10
ATOM     10  C   UNL     1     -34.036  -2.589   0.686  1.00  0.00    +0.209 C 
BRANCH  10  11
ATOM     11  O   UNL     1     -35.198  -3.412   0.520  1.00  0.00    -0.383 OA
ATOM     12  H   UNL     1     -34.920  -4.141  -0.075  1.00  0.00    +0.211 HD
ENDBRANCH  10  11
BRANCH  10  13
ATOM     13  C   UNL     1     -34.033  -2.114   2.128  1.00  0.00    +0.258 C 
ATOM     14  O   UNL     1     -33.892  -0.944   2.477  1.00  0.00    -0.300 OA
ENDBRANCH  10  13
ENDBRANCH   7  10
ENDBRANCH   1   7
TORSDOF 8
ENDMDL
MODEL 2
REMARK VINA RESULT:    -4.975      1.452      2.177
REMARK INTER + INTRA:          -7.296
REMARK INTER:                  -7.055
REMARK INTRA:                  -0.241
REMARK UNBOUND:                -0.575
REMARK SMILES O=C[C@@H](O)[C@@H](O)[C@H](O)CO
REMARK SMILES IDX 7 1 9 2 10 3 8 5 5 7 6 8 3 10 4 11 2 13 1 14
REMARK H PARENT 10 4 8 6 6 9 4 12
ROOT
ATOM      1  C   UNL     1     -34.173  -1.436  -1.048  1.00  0.00    +0.171 C 
ENDROOT
BRANCH   1   2
ATOM      2  C   UNL     1     -33.425  -1.846  -2.323  1.00  0.00    +0.190 C 
BRANCH   2   3
ATOM      3  O   UNL     1     -33.076  -3.227  -2.237  1.00  0.00    -0.394 OA
ATOM      4  H   UNL     1     -33.297  -3.599  -3.114  1.00  0.00    +0.210 HD
ENDBRANCH   2   3
ENDBRANCH   1   2
BRANCH   1   5
ATOM      5  O   UNL     1     -35.569  -1.387  -1.403  1.00  0.00    -0.388 OA
ATOM      6  H   UNL     1     -35.936  -2.289  -1.256  1.00  0.00    +0.211 HD
ENDBRANCH   1   5
BRANCH   1   7
ATOM      7  C   UNL     1     -33.947  -2.461   0.077  1.00  0.00    +0.181 C 
BRANCH   7   8
ATOM      8  O   UNL     1     -35.151  -3.209   0.335  1.00  0.00    -0.387 OA
ATOM      9  H   UNL     1     -35.309  -3.136   1.302  1.00  0.00    +0.211 HD
ENDBRANCH   7   8
BRANCH   7  10
ATOM     10  C   UNL     1     -33.429  -1.892   1.407  1.00  0.00    +0.209 C 
BRANCH  10  11
ATOM     11  O   UNL     1     -34.476  -2.003   2.381  1.00  0.00    -0.383 OA
ATOM     12  H   UNL     1     -34.700  -1.080   2.630  1.00  0.00    +0.211 HD
ENDBRANCH  10  11
BRANCH  10  13
ATOM     13  C   UNL     1     -33.005  -0.434   1.380  1.00  0.00    +0.258 C 
ATOM     14  O   UNL     1     -32.055   0.028   2.009  1.00  0.00    -0.300 OA
ENDBRANCH  10  13
ENDBRANCH   7  10
ENDBRANCH   1   7
TORSDOF 8
ENDMDL
MODEL 3
REMARK VINA RESULT:    -4.853      1.947      2.465
REMARK INTER + INTRA:          -7.131
REMARK INTER:                  -6.638
REMARK INTRA:                  -0.493
REMARK UNBOUND:                -0.575
REMARK SMILES O=C[C@@H](O)[C@@H](O)[C@H](O)CO
REMARK SMILES IDX 7 1 9 2 10 3 8 5 5 7 6 8 3 10 4 11 2 13 1 14
REMARK H PARENT 10 4 8 6 6 9 4 12
ROOT
ATOM      1  C   UNL     1     -33.161  -1.710  -0.670  1.00  0.00    +0.171 C 
ENDROOT
BRANCH   1   2
ATOM      2  C   UNL     1     -34.376  -2.137  -1.504  1.00  0.00    +0.190 C 
BRANCH   2   3
ATOM      3  O   UNL     1     -35.125  -0.977  -1.868  1.00  0.00    -0.394 OA
ATOM      4  H   UNL     1     -34.746  -0.253  -1.330  1.00  0.00    +0.210 HD
ENDBRANCH   2   3
ENDBRANCH   1   2
BRANCH   1   5
ATOM      5  O   UNL     1     -32.144  -1.326  -1.616  1.00  0.00    -0.388 OA
ATOM      6  H   UNL     1     -32.092  -0.342  -1.601  1.00  0.00    +0.211 HD
ENDBRANCH   1   5
BRANCH   1   7
ATOM      7  C   UNL     1     -33.510  -0.524   0.245  1.00  0.00    +0.181 C 
BRANCH   7   8
ATOM      8  O   UNL     1     -33.217   0.728  -0.406  1.00  0.00    -0.387 OA
ATOM      9  H   UNL     1     -34.026   0.963  -0.911  1.00  0.00    +0.211 HD
ENDBRANCH   7   8
BRANCH   7  10
ATOM     10  C   UNL     1     -32.840  -0.525   1.628  1.00  0.00    +0.209 C 
BRANCH  10  11
ATOM     11  O   UNL     1     -33.769  -1.067   2.577  1.00  0.00    -0.383 OA
ATOM     12  H   UNL     1     -33.309  -1.030   3.443  1.00  0.00    +0.211 HD
ENDBRANCH  10  11
BRANCH  10  13
ATOM     13  C   UNL     1     -32.415   0.834   2.155  1.00  0.00    +0.258 C 
ATOM     14  O   UNL     1     -33.166   1.798   2.286  1.00  0.00    -0.300 OA
ENDBRANCH  10  13
ENDBRANCH   7  10
ENDBRANCH   1   7
TORSDOF 8
ENDMDL
MODEL 4
REMARK VINA RESULT:    -4.846      0.667      3.806
REMARK INTER + INTRA:          -7.121
REMARK INTER:                  -6.468
REMARK INTRA:                  -0.653
REMARK UNBOUND:                -0.575
REMARK SMILES O=C[C@@H](O)[C@@H](O)[C@H](O)CO
REMARK SMILES IDX 7 1 9 2 10 3 8 5 5 7 6 8 3 10 4 11 2 13 1 14
REMARK H PARENT 10 4 8 6 6 9 4 12
ROOT
ATOM      1  C   UNL     1     -33.975  -2.471   0.779  1.00  0.00    +0.171 C 
ENDROOT
BRANCH   1   2
ATOM      2  C   UNL     1     -34.018  -1.711   2.112  1.00  0.00    +0.190 C 
BRANCH   2   3
ATOM      3  O   UNL     1     -32.687  -1.359   2.491  1.00  0.00    -0.394 OA
ATOM      4  H   UNL     1     -32.493  -1.910   3.276  1.00  0.00    +0.210 HD
ENDBRANCH   2   3
ENDBRANCH   1   2
BRANCH   1   5
ATOM      5  O   UNL     1     -35.348  -2.708   0.412  1.00  0.00    -0.388 OA
ATOM      6  H   UNL     1     -35.907  -2.365   1.148  1.00  0.00    +0.211 HD
ENDBRANCH   1   5
BRANCH   1   7
ATOM      7  C   UNL     1     -33.271  -1.641  -0.307  1.00  0.00    +0.181 C 
BRANCH   7   8
ATOM      8  O   UNL     1     -33.191  -0.255   0.081  1.00  0.00    -0.387 OA
ATOM      9  H   UNL     1     -32.253  -0.101   0.332  1.00  0.00    +0.211 HD
ENDBRANCH   7   8
BRANCH   7  10
ATOM     10  C   UNL     1     -33.884  -1.720  -1.714  1.00  0.00    +0.209 C 
BRANCH  10  11
ATOM     11  O   UNL     1     -33.932  -3.099  -2.106  1.00  0.00    -0.383 OA
ATOM     12  H   UNL     1     -33.142  -3.514  -1.697  1.00  0.00    +0.211 HD
ENDBRANCH  10  11
BRANCH  10  13
ATOM     13  C   UNL     1     -33.130  -0.977  -2.804  1.00  0.00    +0.258 C 
ATOM     14  O   UNL     1     -31.988  -0.540  -2.688  1.00  0.00    -0.300 OA
ENDBRANCH  10  13
ENDBRANCH   7  10
ENDBRANCH   1   7
TORSDOF 8
ENDMDL
MODEL 5
REMARK VINA RESULT:    -4.656     12.856     14.762
REMARK INTER + INTRA:          -6.865
REMARK INTER:                  -6.385
REMARK INTRA:                  -0.480
REMARK UNBOUND:                -0.575
REMARK SMILES O=C[C@@H](O)[C@@H](O)[C@H](O)CO
REMARK SMILES IDX 7 1 9 2 10 3 8 5 5 7 6 8 3 10 4 11 2 13 1 14
REMARK H PARENT 10 4 8 6 6 9 4 12
ROOT
ATOM      1  C   UNL     1     -25.329   1.794  10.790  1.00  0.00    +0.171 C 
ENDROOT
BRANCH   1   2
ATOM      2  C   UNL     1     -25.594   0.924   9.554  1.00  0.00    +0.190 C 
BRANCH   2   3
ATOM      3  O   UNL     1     -26.485   1.615   8.678  1.00  0.00    -0.394 OA
ATOM      4  H   UNL     1     -26.025   2.450   8.457  1.00  0.00    +0.210 HD
ENDBRANCH   2   3
ENDBRANCH   1   2
BRANCH   1   5
ATOM      5  O   UNL     1     -24.738   0.921  11.772  1.00  0.00    -0.388 OA
ATOM      6  H   UNL     1     -25.050   0.008  11.573  1.00  0.00    +0.211 HD
ENDBRANCH   1   5
BRANCH   1   7
ATOM      7  C   UNL     1     -24.368   2.947  10.456  1.00  0.00    +0.181 C 
BRANCH   7   8
ATOM      8  O   UNL     1     -23.206   2.907  11.308  1.00  0.00    -0.387 OA
ATOM      9  H   UNL     1     -23.356   2.160  11.930  1.00  0.00    +0.211 HD
ENDBRANCH   7   8
BRANCH   7  10
ATOM     10  C   UNL     1     -24.969   4.360  10.516  1.00  0.00    +0.209 C 
BRANCH  10  11
ATOM     11  O   UNL     1     -26.196   4.295  11.256  1.00  0.00    -0.383 OA
ATOM     12  H   UNL     1     -26.884   4.648  10.652  1.00  0.00    +0.211 HD
ENDBRANCH  10  11
BRANCH  10  13
ATOM     13  C   UNL     1     -25.295   4.995   9.176  1.00  0.00    +0.258 C 
ATOM     14  O   UNL     1     -25.804   4.401   8.228  1.00  0.00    -0.300 OA
ENDBRANCH  10  13
ENDBRANCH   7  10
ENDBRANCH   1   7
TORSDOF 8
ENDMDL
MODEL 6
REMARK VINA RESULT:    -4.572     13.760     14.955
REMARK INTER + INTRA:          -6.751
REMARK INTER:                  -6.216
REMARK INTRA:                  -0.535
REMARK UNBOUND:                -0.575
REMARK SMILES O=C[C@@H](O)[C@@H](O)[C@H](O)CO
REMARK SMILES IDX 7 1 9 2 10 3 8 5 5 7 6 8 3 10 4 11 2 13 1 14
REMARK H PARENT 10 4 8 6 6 9 4 12
ROOT
ATOM      1  C   UNL     1     -24.047   1.816  11.031  1.00  0.00    +0.171 C 
ENDROOT
BRANCH   1   2
ATOM      2  C   UNL     1     -23.533   0.723  10.085  1.00  0.00    +0.190 C 
BRANCH   2   3
ATOM      3  O   UNL     1     -22.906   1.337   8.958  1.00  0.00    -0.394 OA
ATOM      4  H   UNL     1     -23.342   2.208   8.870  1.00  0.00    +0.210 HD
ENDBRANCH   2   3
ENDBRANCH   1   2
BRANCH   1   5
ATOM      5  O   UNL     1     -22.987   2.787  11.131  1.00  0.00    -0.388 OA
ATOM      6  H   UNL     1     -22.280   2.386  11.688  1.00  0.00    +0.211 HD
ENDBRANCH   1   5
BRANCH   1   7
ATOM      7  C   UNL     1     -25.320   2.474  10.473  1.00  0.00    +0.181 C 
BRANCH   7   8
ATOM      8  O   UNL     1     -25.585   2.018   9.132  1.00  0.00    -0.387 OA
ATOM      9  H   UNL     1     -26.039   1.152   9.229  1.00  0.00    +0.211 HD
ENDBRANCH   7   8
BRANCH   7  10
ATOM     10  C   UNL     1     -25.337   4.011  10.479  1.00  0.00    +0.209 C 
BRANCH  10  11
ATOM     11  O   UNL     1     -26.181   4.447  11.553  1.00  0.00    -0.383 OA
ATOM     12  H   UNL     1     -26.071   3.775  12.260  1.00  0.00    +0.211 HD
ENDBRANCH  10  11
BRANCH  10  13
ATOM     13  C   UNL     1     -25.858   4.669   9.213  1.00  0.00    +0.258 C 
ATOM     14  O   UNL     1     -25.233   4.746   8.158  1.00  0.00    -0.300 OA
ENDBRANCH  10  13
ENDBRANCH   7  10
ENDBRANCH   1   7
TORSDOF 8
ENDMDL
MODEL 7
REMARK VINA RESULT:    -4.515      1.406      3.908
REMARK INTER + INTRA:          -6.673
REMARK INTER:                  -6.439
REMARK INTRA:                  -0.234
REMARK UNBOUND:                -0.575
REMARK SMILES O=C[C@@H](O)[C@@H](O)[C@H](O)CO
REMARK SMILES IDX 7 1 9 2 10 3 8 5 5 7 6 8 3 10 4 11 2 13 1 14
REMARK H PARENT 10 4 8 6 6 9 4 12
ROOT
ATOM      1  C   UNL     1     -33.231  -1.754   1.314  1.00  0.00    +0.171 C 
ENDROOT
BRANCH   1   2
ATOM      2  C   UNL     1     -33.192  -0.263   1.673  1.00  0.00    +0.190 C 
BRANCH   2   3
ATOM      3  O   UNL     1     -32.924   0.495   0.494  1.00  0.00    -0.394 OA
ATOM      4  H   UNL     1     -32.615   1.366   0.817  1.00  0.00    +0.210 HD
ENDBRANCH   2   3
ENDBRANCH   1   2
BRANCH   1   5
ATOM      5  O   UNL     1     -33.607  -2.445   2.521  1.00  0.00    -0.388 OA
ATOM      6  H   UNL     1     -32.774  -2.758   2.945  1.00  0.00    +0.211 HD
ENDBRANCH   1   5
BRANCH   1   7
ATOM      7  C   UNL     1     -34.261  -2.027   0.204  1.00  0.00    +0.181 C 
BRANCH   7   8
ATOM      8  O   UNL     1     -35.068  -3.176   0.526  1.00  0.00    -0.387 OA
ATOM      9  H   UNL     1     -34.864  -3.848  -0.162  1.00  0.00    +0.211 HD
ENDBRANCH   7   8
BRANCH   7  10
ATOM     10  C   UNL     1     -33.688  -2.212  -1.211  1.00  0.00    +0.209 C 
BRANCH  10  11
ATOM     11  O   UNL     1     -32.315  -1.800  -1.197  1.00  0.00    -0.383 OA
ATOM     12  H   UNL     1     -31.844  -2.477  -0.665  1.00  0.00    +0.211 HD
ENDBRANCH  10  11
BRANCH  10  13
ATOM     13  C   UNL     1     -34.376  -1.419  -2.309  1.00  0.00    +0.258 C 
ATOM     14  O   UNL     1     -34.346  -1.711  -3.502  1.00  0.00    -0.300 OA
ENDBRANCH  10  13
ENDBRANCH   7  10
ENDBRANCH   1   7
TORSDOF 8
ENDMDL
MODEL 8
REMARK VINA RESULT:    -4.434     13.560     15.089
REMARK INTER + INTRA:          -6.565
REMARK INTER:                  -6.047
REMARK INTRA:                  -0.518
REMARK UNBOUND:                -0.575
REMARK SMILES O=C[C@@H](O)[C@@H](O)[C@H](O)CO
REMARK SMILES IDX 7 1 9 2 10 3 8 5 5 7 6 8 3 10 4 11 2 13 1 14
REMARK H PARENT 10 4 8 6 6 9 4 12
ROOT
ATOM      1  C   UNL     1     -24.545   0.565  11.034  1.00  0.00    +0.171 C 
ENDROOT
BRANCH   1   2
ATOM      2  C   UNL     1     -24.882  -0.783  10.382  1.00  0.00    +0.190 C 
BRANCH   2   3
ATOM      3  O   UNL     1     -25.392  -0.552   9.068  1.00  0.00    -0.394 OA
ATOM      4  H   UNL     1     -26.067  -1.246   8.934  1.00  0.00    +0.210 HD
ENDBRANCH   2   3
ENDBRANCH   1   2
BRANCH   1   5
ATOM      5  O   UNL     1     -23.295   0.371  11.725  1.00  0.00    -0.388 OA
ATOM      6  H   UNL     1     -22.638   0.071  11.055  1.00  0.00    +0.211 HD
ENDBRANCH   1   5
BRANCH   1   7
ATOM      7  C   UNL     1     -24.400   1.669   9.973  1.00  0.00    +0.181 C 
BRANCH   7   8
ATOM      8  O   UNL     1     -23.284   1.398   9.102  1.00  0.00    -0.387 OA
ATOM      9  H   UNL     1     -23.076   2.251   8.661  1.00  0.00    +0.211 HD
ENDBRANCH   7   8
BRANCH   7  10
ATOM     10  C   UNL     1     -24.263   3.102  10.512  1.00  0.00    +0.209 C 
BRANCH  10  11
ATOM     11  O   UNL     1     -23.084   3.164  11.328  1.00  0.00    -0.383 OA
ATOM     12  H   UNL     1     -22.446   2.547  10.911  1.00  0.00    +0.211 HD
ENDBRANCH  10  11
BRANCH  10  13
ATOM     13  C   UNL     1     -25.417   3.598  11.366  1.00  0.00    +0.258 C 
ATOM     14  O   UNL     1     -26.365   4.255  10.942  1.00  0.00    -0.300 OA
ENDBRANCH  10  13
ENDBRANCH   7  10
ENDBRANCH   1   7
TORSDOF 8
ENDMDL
MODEL 9
REMARK VINA RESULT:    -4.432     12.715     14.555
REMARK INTER + INTRA:          -6.561
REMARK INTER:                  -5.699
REMARK INTRA:                  -0.862
REMARK UNBOUND:                -0.575
REMARK SMILES O=C[C@@H](O)[C@@H](O)[C@H](O)CO
REMARK SMILES IDX 7 1 9 2 10 3 8 5 5 7 6 8 3 10 4 11 2 13 1 14
REMARK H PARENT 10 4 8 6 6 9 4 12
ROOT
ATOM      1  C   UNL     1     -25.241   0.291  10.058  1.00  0.00    +0.171 C 
ENDROOT
BRANCH   1   2
ATOM      2  C   UNL     1     -26.740  -0.024  10.151  1.00  0.00    +0.190 C 
BRANCH   2   3
ATOM      3  O   UNL     1     -27.483   1.095   9.666  1.00  0.00    -0.394 OA
ATOM      4  H   UNL     1     -26.858   1.847   9.697  1.00  0.00    +0.210 HD
ENDBRANCH   2   3
ENDBRANCH   1   2
BRANCH   1   5
ATOM      5  O   UNL     1     -25.048   0.937   8.784  1.00  0.00    -0.388 OA
ATOM      6  H   UNL     1     -25.593   1.758   8.791  1.00  0.00    +0.211 HD
ENDBRANCH   1   5
BRANCH   1   7
ATOM      7  C   UNL     1     -24.802   1.224  11.199  1.00  0.00    +0.181 C 
BRANCH   7   8
ATOM      8  O   UNL     1     -25.766   1.211  12.270  1.00  0.00    -0.387 OA
ATOM      9  H   UNL     1     -26.276   2.047  12.180  1.00  0.00    +0.211 HD
ENDBRANCH   7   8
BRANCH   7  10
ATOM     10  C   UNL     1     -24.530   2.684  10.803  1.00  0.00    +0.209 C 
BRANCH  10  11
ATOM     11  O   UNL     1     -23.264   3.071  11.355  1.00  0.00    -0.383 OA
ATOM     12  H   UNL     1     -23.259   4.052  11.334  1.00  0.00    +0.211 HD
ENDBRANCH  10  11
BRANCH  10  13
ATOM     13  C   UNL     1     -25.551   3.699  11.286  1.00  0.00    +0.258 C 
ATOM     14  O   UNL     1     -26.731   3.720  10.944  1.00  0.00    -0.300 OA
ENDBRANCH  10  13
ENDBRANCH   7  10
ENDBRANCH   1   7
TORSDOF 8
ENDMDL
