MODEL 1
REMARK VINA RESULT:    -5.513      0.000      0.000
REMARK INTER + INTRA:          -7.428
REMARK INTER:                  -6.802
REMARK INTRA:                  -0.626
REMARK UNBOUND:                -0.626
REMARK SMILES CC(=O)CC(C)(C)NNC(N)=S
REMARK SMILES IDX 5 1 6 2 7 3 4 4 2 5 3 6 1 7 8 8 9 10 10 11 11 12 12 13
REMARK H PARENT 8 9 9 14 11 15 11 16
ROOT
ATOM      1  C   UNL     1     -37.588   5.505  10.240  1.00  0.00    +0.038 C 
ATOM      2  C   UNL     1     -39.064   5.801   9.916  1.00  0.00    +0.030 C 
ATOM      3  C   UNL     1     -36.979   6.618  11.112  1.00  0.00    +0.030 C 
ENDROOT
BRANCH   1   4
ATOM      4  C   UNL     1     -37.440   4.121  10.921  1.00  0.00    +0.099 C 
BRANCH   4   5
ATOM      5  C   UNL     1     -36.123   3.381  10.728  1.00  0.00    +0.131 C 
ATOM      6  O   UNL     1     -35.039   3.939  10.580  1.00  0.00    -0.300 OA
ATOM      7  C   UNL     1     -36.217   1.876  10.712  1.00  0.00    +0.087 C 
ENDBRANCH   4   5
ENDBRANCH   1   4
BRANCH   1   8
ATOM      8  N   UNL     1     -36.821   5.378   8.965  1.00  0.00    -0.229 NA
ATOM      9  H   UNL     1     -36.237   4.532   9.009  1.00  0.00    +0.148 HD
BRANCH   8  10
ATOM     10  N   UNL     1     -35.954   6.469   8.715  1.00  0.00    -0.298 N 
ATOM     11  C   UNL     1     -34.920   6.371   7.806  1.00  0.00    +0.178 C 
ATOM     12  N   UNL     1     -34.280   7.556   7.601  1.00  0.00    -0.375 N 
ATOM     13  S   UNL     1     -34.415   5.003   7.002  1.00  0.00    -0.040 S 
ATOM     14  H   UNL     1     -36.345   7.399   8.845  1.00  0.00    +0.184 HD
ATOM     15  H   UNL     1     -33.437   7.510   7.038  1.00  0.00    +0.159 HD
ATOM     16  H   UNL     1     -34.264   8.238   8.347  1.00  0.00    +0.159 HD
ENDBRANCH   8  10
ENDBRANCH   1   8
TORSDOF 4
ENDMDL
MODEL 2
REMARK VINA RESULT:    -5.464     10.826     11.939
REMARK INTER + INTRA:          -7.368
REMARK INTER:                  -6.816
REMARK INTRA:                  -0.552
REMARK UNBOUND:                -0.626
REMARK SMILES CC(=O)CC(C)(C)NNC(N)=S
REMARK SMILES IDX 5 1 6 2 7 3 4 4 2 5 3 6 1 7 8 8 9 10 10 11 11 12 12 13
REMARK H PARENT 8 9 9 14 11 15 11 16
ROOT
ATOM      1  C   UNL     1     -25.554   0.101  10.066  1.00  0.00    +0.038 C 
ATOM      2  C   UNL     1     -26.092  -1.216   9.475  1.00  0.00    +0.030 C 
ATOM      3  C   UNL     1     -26.329   0.493  11.337  1.00  0.00    +0.030 C 
ENDROOT
BRANCH   1   4
ATOM      4  C   UNL     1     -24.035  -0.001  10.349  1.00  0.00    +0.099 C 
BRANCH   4   5
ATOM      5  C   UNL     1     -23.173   1.204  10.001  1.00  0.00    +0.131 C 
ATOM      6  O   UNL     1     -22.700   1.410   8.887  1.00  0.00    -0.300 OA
ATOM      7  C   UNL     1     -22.904   2.163  11.135  1.00  0.00    +0.087 C 
ENDBRANCH   4   5
ENDBRANCH   1   4
BRANCH   1   8
ATOM      8  N   UNL     1     -25.671   1.183   9.043  1.00  0.00    -0.229 NA
ATOM      9  H   UNL     1     -24.917   1.867   9.192  1.00  0.00    +0.148 HD
BRANCH   8  10
ATOM     10  N   UNL     1     -26.894   1.894   9.108  1.00  0.00    -0.298 N 
ATOM     11  C   UNL     1     -26.920   3.268   9.235  1.00  0.00    +0.178 C 
ATOM     12  N   UNL     1     -28.177   3.786   9.147  1.00  0.00    -0.375 N 
ATOM     13  S   UNL     1     -25.621   4.279   9.486  1.00  0.00    -0.040 S 
ATOM     14  H   UNL     1     -27.688   1.476   8.629  1.00  0.00    +0.184 HD
ATOM     15  H   UNL     1     -28.264   4.774   9.357  1.00  0.00    +0.159 HD
ATOM     16  H   UNL     1     -28.962   3.214   9.431  1.00  0.00    +0.159 HD
ENDBRANCH   8  10
ENDBRANCH   1   8
TORSDOF 4
ENDMDL
MODEL 3
REMARK VINA RESULT:    -5.299      9.519     10.455
REMARK INTER + INTRA:          -7.164
REMARK INTER:                  -6.720
REMARK INTRA:                  -0.444
REMARK UNBOUND:                -0.626
REMARK SMILES CC(=O)CC(C)(C)NNC(N)=S
REMARK SMILES IDX 5 1 6 2 7 3 4 4 2 5 3 6 1 7 8 8 9 10 10 11 11 12 12 13
REMARK H PARENT 8 9 9 14 11 15 11 16
ROOT
ATOM      1  C   UNL     1     -26.131   3.068  11.031  1.00  0.00    +0.038 C 
ATOM      2  C   UNL     1     -27.579   2.548  11.102  1.00  0.00    +0.030 C 
ATOM      3  C   UNL     1     -25.810   3.977  12.231  1.00  0.00    +0.030 C 
ENDROOT
BRANCH   1   4
ATOM      4  C   UNL     1     -25.127   1.892  10.938  1.00  0.00    +0.099 C 
BRANCH   4   5
ATOM      5  C   UNL     1     -25.440   0.779   9.948  1.00  0.00    +0.131 C 
ATOM      6  O   UNL     1     -25.659   0.965   8.754  1.00  0.00    -0.300 OA
ATOM      7  C   UNL     1     -25.484  -0.614  10.525  1.00  0.00    +0.087 C 
ENDBRANCH   4   5
ENDBRANCH   1   4
BRANCH   1   8
ATOM      8  N   UNL     1     -25.942   3.822   9.756  1.00  0.00    -0.229 NA
ATOM      9  H   UNL     1     -25.008   4.254   9.757  1.00  0.00    +0.148 HD
BRANCH   8  10
ATOM     10  N   UNL     1     -26.881   4.866   9.570  1.00  0.00    -0.298 N 
ATOM     11  C   UNL     1     -26.776   5.748   8.514  1.00  0.00    +0.178 C 
ATOM     12  N   UNL     1     -27.838   6.597   8.424  1.00  0.00    -0.375 N 
ATOM     13  S   UNL     1     -25.526   5.861   7.420  1.00  0.00    -0.040 S 
ATOM     14  H   UNL     1     -27.822   4.696   9.916  1.00  0.00    +0.184 HD
ATOM     15  H   UNL     1     -27.750   7.343   7.742  1.00  0.00    +0.159 HD
ATOM     16  H   UNL     1     -28.343   6.838   9.266  1.00  0.00    +0.159 HD
ENDBRANCH   8  10
ENDBRANCH   1   8
TORSDOF 4
ENDMDL
MODEL 4
REMARK VINA RESULT:    -5.276      2.931      5.041
REMARK INTER + INTRA:          -7.135
REMARK INTER:                  -6.889
REMARK INTRA:                  -0.246
REMARK UNBOUND:                -0.626
REMARK SMILES CC(=O)CC(C)(C)NNC(N)=S
REMARK SMILES IDX 5 1 6 2 7 3 4 4 2 5 3 6 1 7 8 8 9 10 10 11 11 12 12 13
REMARK H PARENT 8 9 9 14 11 15 11 16
ROOT
ATOM      1  C   UNL     1     -34.055   5.342   8.053  1.00  0.00    +0.038 C 
ATOM      2  C   UNL     1     -34.481   3.881   7.814  1.00  0.00    +0.030 C 
ATOM      3  C   UNL     1     -32.544   5.439   8.331  1.00  0.00    +0.030 C 
ENDROOT
BRANCH   1   4
ATOM      4  C   UNL     1     -34.459   6.236   6.854  1.00  0.00    +0.099 C 
BRANCH   4   5
ATOM      5  C   UNL     1     -33.709   6.036   5.545  1.00  0.00    +0.131 C 
ATOM      6  O   UNL     1     -33.899   5.090   4.784  1.00  0.00    -0.300 OA
ATOM      7  C   UNL     1     -32.673   7.083   5.218  1.00  0.00    +0.087 C 
ENDBRANCH   4   5
ENDBRANCH   1   4
BRANCH   1   8
ATOM      8  N   UNL     1     -34.824   5.895   9.207  1.00  0.00    -0.229 NA
ATOM      9  H   UNL     1     -34.955   5.153   9.908  1.00  0.00    +0.148 HD
BRANCH   8  10
ATOM     10  N   UNL     1     -36.112   6.366   8.856  1.00  0.00    -0.298 N 
ATOM     11  C   UNL     1     -37.249   5.866   9.457  1.00  0.00    +0.178 C 
ATOM     12  N   UNL     1     -38.380   6.531   9.089  1.00  0.00    -0.375 N 
ATOM     13  S   UNL     1     -37.345   4.586  10.517  1.00  0.00    -0.040 S 
ATOM     14  H   UNL     1     -36.169   7.327   8.525  1.00  0.00    +0.184 HD
ATOM     15  H   UNL     1     -39.254   6.125   9.406  1.00  0.00    +0.159 HD
ATOM     16  H   UNL     1     -38.414   6.972   8.180  1.00  0.00    +0.159 HD
ENDBRANCH   8  10
ENDBRANCH   1   8
TORSDOF 4
ENDMDL
MODEL 5
REMARK VINA RESULT:    -5.253     10.552     11.495
REMARK INTER + INTRA:          -7.108
REMARK INTER:                  -6.420
REMARK INTRA:                  -0.688
REMARK UNBOUND:                -0.626
REMARK SMILES CC(=O)CC(C)(C)NNC(N)=S
REMARK SMILES IDX 5 1 6 2 7 3 4 4 2 5 3 6 1 7 8 8 9 10 10 11 11 12 12 13
REMARK H PARENT 8 9 9 14 11 15 11 16
ROOT
ATOM      1  C   UNL     1     -27.016   2.344  11.887  1.00  0.00    +0.038 C 
ATOM      2  C   UNL     1     -26.083   3.511  12.261  1.00  0.00    +0.030 C 
ATOM      3  C   UNL     1     -28.050   2.086  12.998  1.00  0.00    +0.030 C 
ENDROOT
BRANCH   1   4
ATOM      4  C   UNL     1     -27.712   2.609  10.529  1.00  0.00    +0.099 C 
BRANCH   4   5
ATOM      5  C   UNL     1     -26.821   2.819   9.312  1.00  0.00    +0.131 C 
ATOM      6  O   UNL     1     -26.124   1.939   8.814  1.00  0.00    -0.300 OA
ATOM      7  C   UNL     1     -26.823   4.213   8.735  1.00  0.00    +0.087 C 
ENDBRANCH   4   5
ENDBRANCH   1   4
BRANCH   1   8
ATOM      8  N   UNL     1     -26.199   1.117  11.655  1.00  0.00    -0.229 NA
ATOM      9  H   UNL     1     -26.478   0.396  12.334  1.00  0.00    +0.148 HD
BRANCH   8  10
ATOM     10  N   UNL     1     -24.808   1.323  11.818  1.00  0.00    -0.298 N 
ATOM     11  C   UNL     1     -23.883   0.542  11.156  1.00  0.00    +0.178 C 
ATOM     12  N   UNL     1     -22.602   0.972  11.332  1.00  0.00    -0.375 N 
ATOM     13  S   UNL     1     -24.187  -0.807  10.229  1.00  0.00    -0.040 S 
ATOM     14  H   UNL     1     -24.513   2.271  12.040  1.00  0.00    +0.184 HD
ATOM     15  H   UNL     1     -21.877   0.362  10.969  1.00  0.00    +0.159 HD
ATOM     16  H   UNL     1     -22.365   1.465  12.182  1.00  0.00    +0.159 HD
ENDBRANCH   8  10
ENDBRANCH   1   8
TORSDOF 4
ENDMDL
MODEL 6
REMARK VINA RESULT:    -5.242      2.264      3.254
REMARK INTER + INTRA:          -7.094
REMARK INTER:                  -6.487
REMARK INTRA:                  -0.607
REMARK UNBOUND:                -0.626
REMARK SMILES CC(=O)CC(C)(C)NNC(N)=S
REMARK SMILES IDX 5 1 6 2 7 3 4 4 2 5 3 6 1 7 8 8 9 10 10 11 11 12 12 13
REMARK H PARENT 8 9 9 14 11 15 11 16
ROOT
ATOM      1  C   UNL     1     -35.193   5.180   9.048  1.00  0.00    +0.038 C 
ATOM      2  C   UNL     1     -33.878   4.798   9.755  1.00  0.00    +0.030 C 
ATOM      3  C   UNL     1     -35.524   4.183   7.923  1.00  0.00    +0.030 C 
ENDROOT
BRANCH   1   4
ATOM      4  C   UNL     1     -36.356   5.278  10.066  1.00  0.00    +0.099 C 
BRANCH   4   5
ATOM      5  C   UNL     1     -37.734   5.635   9.525  1.00  0.00    +0.131 C 
ATOM      6  O   UNL     1     -37.958   6.609   8.811  1.00  0.00    -0.300 OA
ATOM      7  C   UNL     1     -38.854   4.711   9.932  1.00  0.00    +0.087 C 
ENDBRANCH   4   5
ENDBRANCH   1   4
BRANCH   1   8
ATOM      8  N   UNL     1     -35.068   6.558   8.489  1.00  0.00    -0.229 NA
ATOM      9  H   UNL     1     -35.834   7.139   8.855  1.00  0.00    +0.148 HD
BRANCH   8  10
ATOM     10  N   UNL     1     -35.151   6.606   7.076  1.00  0.00    -0.298 N 
ATOM     11  C   UNL     1     -34.021   6.726   6.293  1.00  0.00    +0.178 C 
ATOM     12  N   UNL     1     -34.285   6.621   4.960  1.00  0.00    -0.375 N 
ATOM     13  S   UNL     1     -32.461   6.986   6.814  1.00  0.00    -0.040 S 
ATOM     14  H   UNL     1     -35.937   6.120   6.651  1.00  0.00    +0.184 HD
ATOM     15  H   UNL     1     -33.509   6.825   4.340  1.00  0.00    +0.159 HD
ATOM     16  H   UNL     1     -35.195   6.898   4.620  1.00  0.00    +0.159 HD
ENDBRANCH   8  10
ENDBRANCH   1   8
TORSDOF 4
ENDMDL
MODEL 7
REMARK VINA RESULT:    -5.043      8.732     10.300
REMARK INTER + INTRA:          -6.848
REMARK INTER:                  -6.357
REMARK INTRA:                  -0.491
REMARK UNBOUND:                -0.626
REMARK SMILES CC(=O)CC(C)(C)NNC(N)=S
REMARK SMILES IDX 5 1 6 2 7 3 4 4 2 5 3 6 1 7 8 8 9 10 10 11 11 12 12 13
REMARK H PARENT 8 9 9 14 11 15 11 16
ROOT
ATOM      1  C   UNL     1     -26.103   3.616   9.673  1.00  0.00    +0.038 C 
ATOM      2  C   UNL     1     -25.737   2.132   9.486  1.00  0.00    +0.030 C 
ATOM      3  C   UNL     1     -24.943   4.394  10.320  1.00  0.00    +0.030 C 
ENDROOT
BRANCH   1   4
ATOM      4  C   UNL     1     -26.520   4.255   8.325  1.00  0.00    +0.099 C 
BRANCH   4   5
ATOM      5  C   UNL     1     -26.579   5.775   8.257  1.00  0.00    +0.131 C 
ATOM      6  O   UNL     1     -27.429   6.454   8.827  1.00  0.00    -0.300 OA
ATOM      7  C   UNL     1     -25.514   6.433   7.415  1.00  0.00    +0.087 C 
ENDBRANCH   4   5
ENDBRANCH   1   4
BRANCH   1   8
ATOM      8  N   UNL     1     -27.324   3.717  10.527  1.00  0.00    -0.229 NA
ATOM      9  H   UNL     1     -27.138   3.262  11.431  1.00  0.00    +0.148 HD
BRANCH   8  10
ATOM     10  N   UNL     1     -28.460   3.082   9.969  1.00  0.00    -0.298 N 
ATOM     11  C   UNL     1     -29.126   2.078  10.643  1.00  0.00    +0.178 C 
ATOM     12  N   UNL     1     -30.267   1.682  10.012  1.00  0.00    -0.375 N 
ATOM     13  S   UNL     1     -28.667   1.349  12.067  1.00  0.00    -0.040 S 
ATOM     14  H   UNL     1     -29.023   3.639   9.330  1.00  0.00    +0.184 HD
ATOM     15  H   UNL     1     -30.725   0.865  10.401  1.00  0.00    +0.159 HD
ATOM     16  H   UNL     1     -30.326   1.773   9.007  1.00  0.00    +0.159 HD
ENDBRANCH   8  10
ENDBRANCH   1   8
TORSDOF 4
ENDMDL
MODEL 8
REMARK VINA RESULT:    -4.931      1.652      2.878
REMARK INTER + INTRA:          -6.710
REMARK INTER:                  -6.195
REMARK INTRA:                  -0.514
REMARK UNBOUND:                -0.626
REMARK SMILES CC(=O)CC(C)(C)NNC(N)=S
REMARK SMILES IDX 5 1 6 2 7 3 4 4 2 5 3 6 1 7 8 8 9 10 10 11 11 12 12 13
REMARK H PARENT 8 9 9 14 11 15 11 16
ROOT
ATOM      1  C   UNL     1     -34.714   3.854   9.682  1.00  0.00    +0.038 C 
ATOM      2  C   UNL     1     -33.521   4.626  10.276  1.00  0.00    +0.030 C 
ATOM      3  C   UNL     1     -34.249   2.546   9.016  1.00  0.00    +0.030 C 
ENDROOT
BRANCH   1   4
ATOM      4  C   UNL     1     -35.785   3.577  10.766  1.00  0.00    +0.099 C 
BRANCH   4   5
ATOM      5  C   UNL     1     -36.785   4.686  11.065  1.00  0.00    +0.131 C 
ATOM      6  O   UNL     1     -36.467   5.846  11.313  1.00  0.00    -0.300 OA
ATOM      7  C   UNL     1     -38.237   4.276  11.055  1.00  0.00    +0.087 C 
ENDBRANCH   4   5
ENDBRANCH   1   4
BRANCH   1   8
ATOM      8  N   UNL     1     -35.409   4.717   8.682  1.00  0.00    -0.229 NA
ATOM      9  H   UNL     1     -35.275   4.317   7.743  1.00  0.00    +0.148 HD
BRANCH   8  10
ATOM     10  N   UNL     1     -34.918   6.045   8.640  1.00  0.00    -0.298 N 
ATOM     11  C   UNL     1     -34.393   6.581   7.482  1.00  0.00    +0.178 C 
ATOM     12  N   UNL     1     -34.096   7.906   7.597  1.00  0.00    -0.375 N 
ATOM     13  S   UNL     1     -34.100   5.785   6.049  1.00  0.00    -0.040 S 
ATOM     14  H   UNL     1     -35.345   6.707   9.284  1.00  0.00    +0.184 HD
ATOM     15  H   UNL     1     -33.595   8.315   6.816  1.00  0.00    +0.159 HD
ATOM     16  H   UNL     1     -33.853   8.274   8.507  1.00  0.00    +0.159 HD
ENDBRANCH   8  10
ENDBRANCH   1   8
TORSDOF 4
ENDMDL
MODEL 9
REMARK VINA RESULT:    -4.895      2.611      4.013
REMARK INTER + INTRA:          -6.666
REMARK INTER:                  -6.154
REMARK INTRA:                  -0.513
REMARK UNBOUND:                -0.626
REMARK SMILES CC(=O)CC(C)(C)NNC(N)=S
REMARK SMILES IDX 5 1 6 2 7 3 4 4 2 5 3 6 1 7 8 8 9 10 10 11 11 12 12 13
REMARK H PARENT 8 9 9 14 11 15 11 16
ROOT
ATOM      1  C   UNL     1     -34.293   5.236   8.147  1.00  0.00    +0.038 C 
ATOM      2  C   UNL     1     -34.160   6.322   7.063  1.00  0.00    +0.030 C 
ATOM      3  C   UNL     1     -34.958   3.968   7.581  1.00  0.00    +0.030 C 
ENDROOT
BRANCH   1   4
ATOM      4  C   UNL     1     -32.914   4.910   8.772  1.00  0.00    +0.099 C 
BRANCH   4   5
ATOM      5  C   UNL     1     -32.871   3.853   9.866  1.00  0.00    +0.131 C 
ATOM      6  O   UNL     1     -33.572   3.881  10.874  1.00  0.00    -0.300 OA
ATOM      7  C   UNL     1     -31.880   2.735   9.656  1.00  0.00    +0.087 C 
ENDBRANCH   4   5
ENDBRANCH   1   4
BRANCH   1   8
ATOM      8  N   UNL     1     -35.100   5.772   9.284  1.00  0.00    -0.229 NA
ATOM      9  H   UNL     1     -35.242   5.023   9.975  1.00  0.00    +0.148 HD
BRANCH   8  10
ATOM     10  N   UNL     1     -36.383   6.231   8.900  1.00  0.00    -0.298 N 
ATOM     11  C   UNL     1     -37.509   5.912   9.632  1.00  0.00    +0.178 C 
ATOM     12  N   UNL     1     -38.628   6.551   9.189  1.00  0.00    -0.375 N 
ATOM     13  S   UNL     1     -37.605   4.865  10.923  1.00  0.00    -0.040 S 
ATOM     14  H   UNL     1     -36.417   7.112   8.393  1.00  0.00    +0.184 HD
ATOM     15  H   UNL     1     -39.501   6.256   9.613  1.00  0.00    +0.159 HD
ATOM     16  H   UNL     1     -38.688   6.810   8.213  1.00  0.00    +0.159 HD
ENDBRANCH   8  10
ENDBRANCH   1   8
TORSDOF 4
ENDMDL
