MODEL 1
REMARK VINA RESULT:    -6.792      0.000      0.000
REMARK INTER + INTRA:          -7.722
REMARK INTER:                  -7.586
REMARK INTRA:                  -0.136
REMARK UNBOUND:                -0.136
REMARK SMILES COCc1c(C)cc(C)cc1C
REMARK SMILES IDX 3 1 2 2 1 3 4 4 5 5 11 6 7 7 10 8 8 9 6 10 12 11 9 12
REMARK H PARENT
ROOT
ATOM      1  C   UNL     1     -26.358   9.371   5.695  1.00  0.00    +0.195 C 
ENDROOT
BRANCH   1   2
ATOM      2  O   UNL     1     -25.390   9.547   6.727  1.00  0.00    -0.380 OA
ATOM      3  C   UNL     1     -24.614   8.375   6.921  1.00  0.00    +0.195 C 
ENDBRANCH   1   2
BRANCH   1   4
ATOM      4  C   UNL     1     -27.663  10.004   6.133  1.00  0.00    -0.017 A 
ATOM      5  C   UNL     1     -27.971  11.338   5.770  1.00  0.00    -0.045 A 
ATOM      6  C   UNL     1     -28.576   9.283   6.938  1.00  0.00    -0.045 A 
ATOM      7  C   UNL     1     -29.197  11.902   6.162  1.00  0.00    +0.007 A 
ATOM      8  C   UNL     1     -29.794   9.876   7.315  1.00  0.00    +0.007 A 
ATOM      9  C   UNL     1     -30.108  11.184   6.940  1.00  0.00    -0.051 A 
ATOM     10  C   UNL     1     -27.026  12.177   4.951  1.00  0.00    +0.045 C 
ATOM     11  C   UNL     1     -28.293   7.877   7.396  1.00  0.00    +0.045 C 
ATOM     12  C   UNL     1     -31.424  11.791   7.325  1.00  0.00    +0.044 C 
ENDBRANCH   1   4
TORSDOF 2
ENDMDL
MODEL 2
REMARK VINA RESULT:    -6.761      0.218      2.515
REMARK INTER + INTRA:          -7.687
REMARK INTER:                  -7.664
REMARK INTRA:                  -0.023
REMARK UNBOUND:                -0.136
REMARK SMILES COCc1c(C)cc(C)cc1C
REMARK SMILES IDX 3 1 2 2 1 3 4 4 5 5 11 6 7 7 10 8 8 9 6 10 12 11 9 12
REMARK H PARENT
ROOT
ATOM      1  C   UNL     1     -26.348   9.690   5.651  1.00  0.00    +0.195 C 
ENDROOT
BRANCH   1   2
ATOM      2  O   UNL     1     -25.465   9.646   6.769  1.00  0.00    -0.380 OA
ATOM      3  C   UNL     1     -24.616   8.511   6.721  1.00  0.00    +0.195 C 
ENDBRANCH   1   2
BRANCH   1   4
ATOM      4  C   UNL     1     -27.699  10.199   6.113  1.00  0.00    -0.017 A 
ATOM      5  C   UNL     1     -28.563   9.364   6.862  1.00  0.00    -0.045 A 
ATOM      6  C   UNL     1     -28.129  11.504   5.773  1.00  0.00    -0.045 A 
ATOM      7  C   UNL     1     -29.801   9.859   7.305  1.00  0.00    +0.007 A 
ATOM      8  C   UNL     1     -29.374  11.970   6.231  1.00  0.00    +0.007 A 
ATOM      9  C   UNL     1     -30.218  11.154   6.987  1.00  0.00    -0.051 A 
ATOM     10  C   UNL     1     -28.187   7.951   7.221  1.00  0.00    +0.045 C 
ATOM     11  C   UNL     1     -27.280  12.430   4.943  1.00  0.00    +0.045 C 
ATOM     12  C   UNL     1     -31.530  11.676   7.493  1.00  0.00    +0.044 C 
ENDBRANCH   1   4
TORSDOF 2
ENDMDL
MODEL 3
REMARK VINA RESULT:    -6.723      2.105      3.934
REMARK INTER + INTRA:          -7.645
REMARK INTER:                  -7.505
REMARK INTRA:                  -0.140
REMARK UNBOUND:                -0.136
REMARK SMILES COCc1c(C)cc(C)cc1C
REMARK SMILES IDX 3 1 2 2 1 3 4 4 5 5 11 6 7 7 10 8 8 9 6 10 12 11 9 12
REMARK H PARENT
ROOT
ATOM      1  C   UNL     1     -29.979   8.477   7.355  1.00  0.00    +0.195 C 
ENDROOT
BRANCH   1   2
ATOM      2  O   UNL     1     -30.856   7.891   6.396  1.00  0.00    -0.380 OA
ATOM      3  C   UNL     1     -32.021   7.362   7.008  1.00  0.00    +0.195 C 
ENDBRANCH   1   2
BRANCH   1   4
ATOM      4  C   UNL     1     -29.442   9.780   6.798  1.00  0.00    -0.017 A 
ATOM      5  C   UNL     1     -28.177   9.822   6.163  1.00  0.00    -0.045 A 
ATOM      6  C   UNL     1     -30.182  10.978   6.934  1.00  0.00    -0.045 A 
ATOM      7  C   UNL     1     -27.704  11.032   5.629  1.00  0.00    +0.007 A 
ATOM      8  C   UNL     1     -29.681  12.174   6.390  1.00  0.00    +0.007 A 
ATOM      9  C   UNL     1     -28.443  12.212   5.745  1.00  0.00    -0.051 A 
ATOM     10  C   UNL     1     -27.318   8.593   6.023  1.00  0.00    +0.045 C 
ATOM     11  C   UNL     1     -31.514  11.015   7.635  1.00  0.00    +0.045 C 
ATOM     12  C   UNL     1     -27.937  13.489   5.143  1.00  0.00    +0.044 C 
ENDBRANCH   1   4
TORSDOF 2
ENDMDL
MODEL 4
REMARK VINA RESULT:    -6.722      1.410      3.077
REMARK INTER + INTRA:          -7.644
REMARK INTER:                  -7.678
REMARK INTRA:                   0.034
REMARK UNBOUND:                -0.136
REMARK SMILES COCc1c(C)cc(C)cc1C
REMARK SMILES IDX 3 1 2 2 1 3 4 4 5 5 11 6 7 7 10 8 8 9 6 10 12 11 9 12
REMARK H PARENT
ROOT
ATOM      1  C   UNL     1     -28.948   8.309   7.108  1.00  0.00    +0.195 C 
ENDROOT
BRANCH   1   2
ATOM      2  O   UNL     1     -28.042   8.070   8.182  1.00  0.00    -0.380 OA
ATOM      3  C   UNL     1     -27.487   6.766   8.118  1.00  0.00    +0.195 C 
ENDBRANCH   1   2
BRANCH   1   4
ATOM      4  C   UNL     1     -28.719   9.709   6.574  1.00  0.00    -0.017 A 
ATOM      5  C   UNL     1     -29.674  10.729   6.801  1.00  0.00    -0.045 A 
ATOM      6  C   UNL     1     -27.562  10.007   5.815  1.00  0.00    -0.045 A 
ATOM      7  C   UNL     1     -29.435  12.028   6.322  1.00  0.00    +0.007 A 
ATOM      8  C   UNL     1     -27.352  11.317   5.348  1.00  0.00    +0.007 A 
ATOM      9  C   UNL     1     -28.284  12.329   5.589  1.00  0.00    -0.051 A 
ATOM     10  C   UNL     1     -30.946  10.470   7.564  1.00  0.00    +0.045 C 
ATOM     11  C   UNL     1     -26.527   8.961   5.499  1.00  0.00    +0.045 C 
ATOM     12  C   UNL     1     -28.030  13.727   5.111  1.00  0.00    +0.044 C 
ENDBRANCH   1   4
TORSDOF 2
ENDMDL
MODEL 5
REMARK VINA RESULT:    -6.272      2.266      4.073
REMARK INTER + INTRA:          -7.141
REMARK INTER:                  -6.998
REMARK INTRA:                  -0.143
REMARK UNBOUND:                -0.136
REMARK SMILES COCc1c(C)cc(C)cc1C
REMARK SMILES IDX 3 1 2 2 1 3 4 4 5 5 11 6 7 7 10 8 8 9 6 10 12 11 9 12
REMARK H PARENT
ROOT
ATOM      1  C   UNL     1     -31.034   9.201   7.529  1.00  0.00    +0.195 C 
ENDROOT
BRANCH   1   2
ATOM      2  O   UNL     1     -31.690   8.489   6.483  1.00  0.00    -0.380 OA
ATOM      3  C   UNL     1     -32.166   7.229   6.927  1.00  0.00    +0.195 C 
ENDBRANCH   1   2
BRANCH   1   4
ATOM      4  C   UNL     1     -29.741   9.781   6.991  1.00  0.00    -0.017 A 
ATOM      5  C   UNL     1     -29.736  11.033   6.330  1.00  0.00    -0.045 A 
ATOM      6  C   UNL     1     -28.526   9.065   7.115  1.00  0.00    -0.045 A 
ATOM      7  C   UNL     1     -28.526  11.569   5.860  1.00  0.00    +0.007 A 
ATOM      8  C   UNL     1     -27.332   9.628   6.633  1.00  0.00    +0.007 A 
ATOM      9  C   UNL     1     -27.323  10.872   5.999  1.00  0.00    -0.051 A 
ATOM     10  C   UNL     1     -30.999  11.828   6.125  1.00  0.00    +0.045 C 
ATOM     11  C   UNL     1     -28.466   7.710   7.769  1.00  0.00    +0.045 C 
ATOM     12  C   UNL     1     -26.036  11.473   5.518  1.00  0.00    +0.044 C 
ENDBRANCH   1   4
TORSDOF 2
ENDMDL
MODEL 6
REMARK VINA RESULT:    -6.150      1.620      2.562
REMARK INTER + INTRA:          -7.005
REMARK INTER:                  -6.880
REMARK INTRA:                  -0.125
REMARK UNBOUND:                -0.136
REMARK SMILES COCc1c(C)cc(C)cc1C
REMARK SMILES IDX 3 1 2 2 1 3 4 4 5 5 11 6 7 7 10 8 8 9 6 10 12 11 9 12
REMARK H PARENT
ROOT
ATOM      1  C   UNL     1     -27.400  10.267   6.881  1.00  0.00    +0.195 C 
ENDROOT
BRANCH   1   2
ATOM      2  O   UNL     1     -26.989  10.216   5.517  1.00  0.00    -0.380 OA
ATOM      3  C   UNL     1     -26.351  11.419   5.117  1.00  0.00    +0.195 C 
ENDBRANCH   1   2
BRANCH   1   4
ATOM      4  C   UNL     1     -28.803   9.703   6.992  1.00  0.00    -0.017 A 
ATOM      5  C   UNL     1     -29.928  10.522   6.733  1.00  0.00    -0.045 A 
ATOM      6  C   UNL     1     -29.007   8.360   7.387  1.00  0.00    -0.045 A 
ATOM      7  C   UNL     1     -31.220   9.978   6.815  1.00  0.00    +0.007 A 
ATOM      8  C   UNL     1     -30.313   7.845   7.461  1.00  0.00    +0.007 A 
ATOM      9  C   UNL     1     -31.423   8.646   7.186  1.00  0.00    -0.051 A 
ATOM     10  C   UNL     1     -29.784  11.972   6.350  1.00  0.00    +0.045 C 
ATOM     11  C   UNL     1     -27.858   7.445   7.718  1.00  0.00    +0.045 C 
ATOM     12  C   UNL     1     -32.808   8.074   7.240  1.00  0.00    +0.044 C 
ENDBRANCH   1   4
TORSDOF 2
ENDMDL
MODEL 7
REMARK VINA RESULT:    -6.118      5.758      7.349
REMARK INTER + INTRA:          -6.969
REMARK INTER:                  -6.836
REMARK INTRA:                  -0.133
REMARK UNBOUND:                -0.136
REMARK SMILES COCc1c(C)cc(C)cc1C
REMARK SMILES IDX 3 1 2 2 1 3 4 4 5 5 11 6 7 7 10 8 8 9 6 10 12 11 9 12
REMARK H PARENT
ROOT
ATOM      1  C   UNL     1     -34.409   4.968   7.283  1.00  0.00    +0.195 C 
ENDROOT
BRANCH   1   2
ATOM      2  O   UNL     1     -35.465   5.592   8.010  1.00  0.00    -0.380 OA
ATOM      3  C   UNL     1     -36.156   4.662   8.829  1.00  0.00    +0.195 C 
ENDBRANCH   1   2
BRANCH   1   4
ATOM      4  C   UNL     1     -33.269   5.955   7.130  1.00  0.00    -0.017 A 
ATOM      5  C   UNL     1     -33.130   6.712   5.942  1.00  0.00    -0.045 A 
ATOM      6  C   UNL     1     -32.310   6.109   8.159  1.00  0.00    -0.045 A 
ATOM      7  C   UNL     1     -32.083   7.642   5.825  1.00  0.00    +0.007 A 
ATOM      8  C   UNL     1     -31.273   7.046   8.011  1.00  0.00    +0.007 A 
ATOM      9  C   UNL     1     -31.147   7.809   6.848  1.00  0.00    -0.051 A 
ATOM     10  C   UNL     1     -34.090   6.567   4.790  1.00  0.00    +0.045 C 
ATOM     11  C   UNL     1     -32.373   5.305   9.430  1.00  0.00    +0.045 C 
ATOM     12  C   UNL     1     -30.053   8.826   6.719  1.00  0.00    +0.044 C 
ENDBRANCH   1   4
TORSDOF 2
ENDMDL
MODEL 8
REMARK VINA RESULT:    -5.594      1.733      4.125
REMARK INTER + INTRA:          -6.384
REMARK INTER:                  -6.642
REMARK INTRA:                   0.258
REMARK UNBOUND:                -0.136
REMARK SMILES COCc1c(C)cc(C)cc1C
REMARK SMILES IDX 3 1 2 2 1 3 4 4 5 5 11 6 7 7 10 8 8 9 6 10 12 11 9 12
REMARK H PARENT
ROOT
ATOM      1  C   UNL     1     -29.708  10.852   6.287  1.00  0.00    +0.195 C 
ENDROOT
BRANCH   1   2
ATOM      2  O   UNL     1     -30.282  10.881   7.591  1.00  0.00    -0.380 OA
ATOM      3  C   UNL     1     -30.555  12.208   8.013  1.00  0.00    +0.195 C 
ENDBRANCH   1   2
BRANCH   1   4
ATOM      4  C   UNL     1     -28.371  10.142   6.355  1.00  0.00    -0.017 A 
ATOM      5  C   UNL     1     -27.196  10.780   5.889  1.00  0.00    -0.045 A 
ATOM      6  C   UNL     1     -28.283   8.822   6.856  1.00  0.00    -0.045 A 
ATOM      7  C   UNL     1     -25.959  10.120   5.982  1.00  0.00    +0.007 A 
ATOM      8  C   UNL     1     -27.031   8.187   6.935  1.00  0.00    +0.007 A 
ATOM      9  C   UNL     1     -25.868   8.823   6.495  1.00  0.00    -0.051 A 
ATOM     10  C   UNL     1     -27.223  12.168   5.304  1.00  0.00    +0.045 C 
ATOM     11  C   UNL     1     -29.498   8.069   7.329  1.00  0.00    +0.045 C 
ATOM     12  C   UNL     1     -24.537   8.144   6.615  1.00  0.00    +0.044 C 
ENDBRANCH   1   4
TORSDOF 2
ENDMDL
MODEL 9
REMARK VINA RESULT:    -5.542      5.795      7.380
REMARK INTER + INTRA:          -6.326
REMARK INTER:                  -6.186
REMARK INTRA:                  -0.140
REMARK UNBOUND:                -0.136
REMARK SMILES COCc1c(C)cc(C)cc1C
REMARK SMILES IDX 3 1 2 2 1 3 4 4 5 5 11 6 7 7 10 8 8 9 6 10 12 11 9 12
REMARK H PARENT
ROOT
ATOM      1  C   UNL     1     -31.871   7.495   6.564  1.00  0.00    +0.195 C 
ENDROOT
BRANCH   1   2
ATOM      2  O   UNL     1     -32.540   8.699   6.933  1.00  0.00    -0.380 OA
ATOM      3  C   UNL     1     -31.674   9.589   7.619  1.00  0.00    +0.195 C 
ENDBRANCH   1   2
BRANCH   1   4
ATOM      4  C   UNL     1     -32.707   6.312   7.008  1.00  0.00    -0.017 A 
ATOM      5  C   UNL     1     -33.760   5.831   6.193  1.00  0.00    -0.045 A 
ATOM      6  C   UNL     1     -32.468   5.694   8.259  1.00  0.00    -0.045 A 
ATOM      7  C   UNL     1     -34.509   4.717   6.607  1.00  0.00    +0.007 A 
ATOM      8  C   UNL     1     -33.237   4.582   8.645  1.00  0.00    +0.007 A 
ATOM      9  C   UNL     1     -34.262   4.093   7.832  1.00  0.00    -0.051 A 
ATOM     10  C   UNL     1     -34.096   6.469   4.871  1.00  0.00    +0.045 C 
ATOM     11  C   UNL     1     -31.394   6.181   9.194  1.00  0.00    +0.045 C 
ATOM     12  C   UNL     1     -35.052   2.887   8.245  1.00  0.00    +0.044 C 
ENDBRANCH   1   4
TORSDOF 2
ENDMDL
