REMARK SMILES CCCC[C@H](CC)COCCCN
REMARK SMILES IDX 8 1 5 2 4 3 3 4 2 5 1 6 6 7 7 8 9 9 10 10 11 11 12 12 13 13
REMARK H PARENT 13 14 13 15
ROOT
ATOM      1  C   UNL     1      -0.509  -1.381   0.807  1.00  0.00    +0.163 C 
ENDROOT
BRANCH   1   2
ATOM      2  C   UNL     1       0.516  -0.272   0.485  1.00  0.00    +0.015 C 
BRANCH   2   3
ATOM      3  C   UNL     1       1.914  -0.922   0.353  1.00  0.00    +0.006 C 
BRANCH   3   4
ATOM      4  C   UNL     1       3.003   0.033  -0.149  1.00  0.00    +0.000 C 
BRANCH   4   5
ATOM      5  C   UNL     1       4.311  -0.713  -0.417  1.00  0.00    -0.003 C 
ATOM      6  C   UNL     1       5.399   0.229  -0.909  1.00  0.00    +0.004 C 
ENDBRANCH   4   5
ENDBRANCH   3   4
ENDBRANCH   2   3
BRANCH   2   7
ATOM      7  C   UNL     1       0.524   0.854   1.545  1.00  0.00    +0.002 C 
ATOM      8  C   UNL     1      -0.801   1.580   1.721  1.00  0.00    +0.004 C 
ENDBRANCH   2   7
ENDBRANCH   1   2
BRANCH   1   9
ATOM      9  O   UNL     1      -1.862  -0.968   0.621  1.00  0.00    -0.381 OA
BRANCH   9  10
ATOM     10  C   UNL     1      -2.290  -1.019  -0.738  1.00  0.00    +0.161 C 
BRANCH  10  11
ATOM     11  C   UNL     1      -3.774  -0.668  -0.822  1.00  0.00    +0.043 C 
BRANCH  11  12
ATOM     12  C   UNL     1      -4.062   0.738  -0.300  1.00  0.00    +0.080 C 
BRANCH  12  13
ATOM     13  N   UNL     1      -5.469   1.078  -0.501  1.00  0.00    -0.330 NA
ATOM     14  H   UNL     1      -5.639   2.019  -0.151  1.00  0.00    +0.118 HD
ATOM     15  H   UNL     1      -5.679   1.100  -1.498  1.00  0.00    +0.118 HD
ENDBRANCH  12  13
ENDBRANCH  11  12
ENDBRANCH  10  11
ENDBRANCH   9  10
ENDBRANCH   1   9
TORSDOF 10
