MODEL 1
REMARK VINA RESULT:    -6.490      0.000      0.000
REMARK INTER + INTRA:          -7.774
REMARK INTER:                  -7.629
REMARK INTRA:                  -0.145
REMARK UNBOUND:                -0.145
REMARK SMILES CC1=C[C@H](C)[C@@H](C(=O)O)[C@H](C(=O)O)C1
REMARK SMILES IDX 5 1 4 2 3 3 2 4 1 5 14 6 10 7 6 8 7 9 8 10 9 11 11 13 12 14
REMARK SMILES IDX 13 15
REMARK H PARENT 9 12 13 16
ROOT
ATOM      1  C   UNL     1     -36.440   6.236  11.841  1.00  0.00    +0.013 C 
ATOM      2  C   UNL     1     -35.772   5.458  10.701  1.00  0.00    +0.023 C 
ATOM      3  C   UNL     1     -35.824   3.987  11.018  1.00  0.00    -0.024 C 
ATOM      4  C   UNL     1     -36.438   3.063  10.263  1.00  0.00    -0.076 C 
ATOM      5  C   UNL     1     -36.406   1.602  10.615  1.00  0.00    +0.039 C 
ATOM      6  C   UNL     1     -37.182   3.417   9.004  1.00  0.00    +0.046 C 
ATOM      7  C   UNL     1     -37.511   4.911   8.843  1.00  0.00    +0.118 C 
ATOM      8  C   UNL     1     -36.363   5.830   9.320  1.00  0.00    +0.120 C 
ENDROOT
BRANCH   8   9
ATOM      9  C   UNL     1     -35.268   5.870   8.273  1.00  0.00    +0.307 C 
ATOM     10  O   UNL     1     -34.425   5.018   8.046  1.00  0.00    -0.252 OA
BRANCH   9  11
ATOM     11  O   UNL     1     -35.316   6.987   7.518  1.00  0.00    -0.481 OA
ATOM     12  H   UNL     1     -35.693   6.682   6.665  1.00  0.00    +0.296 HD
ENDBRANCH   9  11
ENDBRANCH   8   9
BRANCH   7  13
ATOM     13  C   UNL     1     -38.823   5.309   9.489  1.00  0.00    +0.307 C 
ATOM     14  O   UNL     1     -39.128   6.419   9.895  1.00  0.00    -0.252 OA
BRANCH  13  15
ATOM     15  O   UNL     1     -39.747   4.330   9.497  1.00  0.00    -0.481 OA
ATOM     16  H   UNL     1     -40.602   4.811   9.481  1.00  0.00    +0.296 HD
ENDBRANCH  13  15
ENDBRANCH   7  13
TORSDOF 4
ENDMDL
MODEL 2
REMARK VINA RESULT:    -6.295      2.312      4.031
REMARK INTER + INTRA:          -7.545
REMARK INTER:                  -7.235
REMARK INTRA:                  -0.310
REMARK UNBOUND:                -0.145
REMARK SMILES CC1=C[C@H](C)[C@@H](C(=O)O)[C@H](C(=O)O)C1
REMARK SMILES IDX 5 1 4 2 3 3 2 4 1 5 14 6 10 7 6 8 7 9 8 10 9 11 11 13 12 14
REMARK SMILES IDX 13 15
REMARK H PARENT 9 12 13 16
ROOT
ATOM      1  C   UNL     1     -34.300   2.750  10.898  1.00  0.00    +0.013 C 
ATOM      2  C   UNL     1     -34.415   4.264  10.686  1.00  0.00    +0.023 C 
ATOM      3  C   UNL     1     -33.127   4.774  10.096  1.00  0.00    -0.024 C 
ATOM      4  C   UNL     1     -33.021   5.388   8.907  1.00  0.00    -0.076 C 
ATOM      5  C   UNL     1     -31.708   5.917   8.403  1.00  0.00    +0.039 C 
ATOM      6  C   UNL     1     -34.206   5.609   8.006  1.00  0.00    +0.046 C 
ATOM      7  C   UNL     1     -35.448   4.771   8.352  1.00  0.00    +0.118 C 
ATOM      8  C   UNL     1     -35.677   4.642   9.875  1.00  0.00    +0.120 C 
ENDROOT
BRANCH   8   9
ATOM      9  C   UNL     1     -36.285   5.922  10.414  1.00  0.00    +0.307 C 
ATOM     10  O   UNL     1     -37.012   6.705   9.826  1.00  0.00    -0.252 OA
BRANCH   9  11
ATOM     11  O   UNL     1     -35.975   6.135  11.709  1.00  0.00    -0.481 OA
ATOM     12  H   UNL     1     -35.040   5.847  11.782  1.00  0.00    +0.296 HD
ENDBRANCH   9  11
ENDBRANCH   8   9
BRANCH   7  13
ATOM     13  C   UNL     1     -35.455   3.408   7.689  1.00  0.00    +0.307 C 
ATOM     14  O   UNL     1     -34.478   2.745   7.378  1.00  0.00    -0.252 OA
BRANCH  13  15
ATOM     15  O   UNL     1     -36.683   2.876   7.546  1.00  0.00    -0.481 OA
ATOM     16  H   UNL     1     -36.511   1.965   7.225  1.00  0.00    +0.296 HD
ENDBRANCH  13  15
ENDBRANCH   7  13
TORSDOF 4
ENDMDL
MODEL 3
REMARK VINA RESULT:    -6.278      1.885      3.659
REMARK INTER + INTRA:          -7.524
REMARK INTER:                  -7.205
REMARK INTRA:                  -0.319
REMARK UNBOUND:                -0.145
REMARK SMILES CC1=C[C@H](C)[C@@H](C(=O)O)[C@H](C(=O)O)C1
REMARK SMILES IDX 5 1 4 2 3 3 2 4 1 5 14 6 10 7 6 8 7 9 8 10 9 11 11 13 12 14
REMARK SMILES IDX 13 15
REMARK H PARENT 9 12 13 16
ROOT
ATOM      1  C   UNL     1     -35.204   5.158  11.332  1.00  0.00    +0.013 C 
ATOM      2  C   UNL     1     -36.024   5.445  10.068  1.00  0.00    +0.023 C 
ATOM      3  C   UNL     1     -35.108   5.413   8.874  1.00  0.00    -0.024 C 
ATOM      4  C   UNL     1     -35.233   4.570   7.837  1.00  0.00    -0.076 C 
ATOM      5  C   UNL     1     -34.310   4.628   6.652  1.00  0.00    +0.039 C 
ATOM      6  C   UNL     1     -36.313   3.524   7.776  1.00  0.00    +0.046 C 
ATOM      7  C   UNL     1     -37.014   3.236   9.114  1.00  0.00    +0.118 C 
ATOM      8  C   UNL     1     -37.253   4.514   9.950  1.00  0.00    +0.120 C 
ENDROOT
BRANCH   8   9
ATOM      9  C   UNL     1     -38.439   5.276   9.395  1.00  0.00    +0.307 C 
ATOM     10  O   UNL     1     -38.478   6.448   9.057  1.00  0.00    -0.252 OA
BRANCH   9  11
ATOM     11  O   UNL     1     -39.531   4.498   9.247  1.00  0.00    -0.481 OA
ATOM     12  H   UNL     1     -40.032   4.926   8.520  1.00  0.00    +0.296 HD
ENDBRANCH   9  11
ENDBRANCH   8   9
BRANCH   7  13
ATOM     13  C   UNL     1     -36.314   2.175   9.941  1.00  0.00    +0.307 C 
ATOM     14  O   UNL     1     -36.485   1.947  11.128  1.00  0.00    -0.252 OA
BRANCH  13  15
ATOM     15  O   UNL     1     -35.515   1.363   9.225  1.00  0.00    -0.481 OA
ATOM     16  H   UNL     1     -34.629   1.490   9.625  1.00  0.00    +0.296 HD
ENDBRANCH  13  15
ENDBRANCH   7  13
TORSDOF 4
ENDMDL
MODEL 4
REMARK VINA RESULT:    -6.195      9.045     10.494
REMARK INTER + INTRA:          -7.427
REMARK INTER:                  -7.150
REMARK INTRA:                  -0.277
REMARK UNBOUND:                -0.145
REMARK SMILES CC1=C[C@H](C)[C@@H](C(=O)O)[C@H](C(=O)O)C1
REMARK SMILES IDX 5 1 4 2 3 3 2 4 1 5 14 6 10 7 6 8 7 9 8 10 9 11 11 13 12 14
REMARK SMILES IDX 13 15
REMARK H PARENT 9 12 13 16
ROOT
ATOM      1  C   UNL     1     -25.811   3.978  12.334  1.00  0.00    +0.013 C 
ATOM      2  C   UNL     1     -26.015   2.508  11.948  1.00  0.00    +0.023 C 
ATOM      3  C   UNL     1     -27.317   2.026  12.531  1.00  0.00    -0.024 C 
ATOM      4  C   UNL     1     -28.351   1.562  11.812  1.00  0.00    -0.076 C 
ATOM      5  C   UNL     1     -29.604   1.050  12.465  1.00  0.00    +0.039 C 
ATOM      6  C   UNL     1     -28.324   1.501  10.308  1.00  0.00    +0.046 C 
ATOM      7  C   UNL     1     -27.215   2.337   9.646  1.00  0.00    +0.118 C 
ATOM      8  C   UNL     1     -25.881   2.284  10.424  1.00  0.00    +0.120 C 
ENDROOT
BRANCH   8   9
ATOM      9  C   UNL     1     -25.176   0.971  10.145  1.00  0.00    +0.307 C 
ATOM     10  O   UNL     1     -24.649   0.224  10.953  1.00  0.00    -0.252 OA
BRANCH   9  11
ATOM     11  O   UNL     1     -25.209   0.633   8.839  1.00  0.00    -0.481 OA
ATOM     12  H   UNL     1     -24.322   0.885   8.506  1.00  0.00    +0.296 HD
ENDBRANCH   9  11
ENDBRANCH   8   9
BRANCH   7  13
ATOM     13  C   UNL     1     -27.626   3.772   9.378  1.00  0.00    +0.307 C 
ATOM     14  O   UNL     1     -26.880   4.729   9.247  1.00  0.00    -0.252 OA
BRANCH  13  15
ATOM     15  O   UNL     1     -28.945   3.933   9.169  1.00  0.00    -0.481 OA
ATOM     16  H   UNL     1     -28.997   4.702   8.564  1.00  0.00    +0.296 HD
ENDBRANCH  13  15
ENDBRANCH   7  13
TORSDOF 4
ENDMDL
MODEL 5
REMARK VINA RESULT:    -5.960      3.023      4.421
REMARK INTER + INTRA:          -7.150
REMARK INTER:                  -6.837
REMARK INTRA:                  -0.313
REMARK UNBOUND:                -0.145
REMARK SMILES CC1=C[C@H](C)[C@@H](C(=O)O)[C@H](C(=O)O)C1
REMARK SMILES IDX 5 1 4 2 3 3 2 4 1 5 14 6 10 7 6 8 7 9 8 10 9 11 11 13 12 14
REMARK SMILES IDX 13 15
REMARK H PARENT 9 12 13 16
ROOT
ATOM      1  C   UNL     1     -35.107   3.745   7.327  1.00  0.00    +0.013 C 
ATOM      2  C   UNL     1     -34.539   4.881   8.186  1.00  0.00    +0.023 C 
ATOM      3  C   UNL     1     -35.590   5.323   9.169  1.00  0.00    -0.024 C 
ATOM      4  C   UNL     1     -35.456   5.278  10.503  1.00  0.00    -0.076 C 
ATOM      5  C   UNL     1     -36.530   5.784  11.425  1.00  0.00    +0.039 C 
ATOM      6  C   UNL     1     -34.220   4.738  11.171  1.00  0.00    +0.046 C 
ATOM      7  C   UNL     1     -33.299   3.912  10.258  1.00  0.00    +0.118 C 
ATOM      8  C   UNL     1     -33.186   4.499   8.833  1.00  0.00    +0.120 C 
ENDROOT
BRANCH   8   9
ATOM      9  C   UNL     1     -32.252   5.693   8.841  1.00  0.00    +0.307 C 
ATOM     10  O   UNL     1     -31.142   5.765   9.342  1.00  0.00    -0.252 OA
BRANCH   9  11
ATOM     11  O   UNL     1     -32.753   6.747   8.165  1.00  0.00    -0.481 OA
ATOM     12  H   UNL     1     -31.974   7.321   8.006  1.00  0.00    +0.296 HD
ENDBRANCH   9  11
ENDBRANCH   8   9
BRANCH   7  13
ATOM     13  C   UNL     1     -33.666   2.442  10.207  1.00  0.00    +0.307 C 
ATOM     14  O   UNL     1     -34.564   1.895  10.827  1.00  0.00    -0.252 OA
BRANCH  13  15
ATOM     15  O   UNL     1     -32.972   1.736   9.296  1.00  0.00    -0.481 OA
ATOM     16  H   UNL     1     -33.368   2.000   8.439  1.00  0.00    +0.296 HD
ENDBRANCH  13  15
ENDBRANCH   7  13
TORSDOF 4
ENDMDL
MODEL 6
REMARK VINA RESULT:    -5.912      8.592     10.364
REMARK INTER + INTRA:          -7.094
REMARK INTER:                  -6.949
REMARK INTRA:                  -0.145
REMARK UNBOUND:                -0.145
REMARK SMILES CC1=C[C@H](C)[C@@H](C(=O)O)[C@H](C(=O)O)C1
REMARK SMILES IDX 5 1 4 2 3 3 2 4 1 5 14 6 10 7 6 8 7 9 8 10 9 11 11 13 12 14
REMARK SMILES IDX 13 15
REMARK H PARENT 9 12 13 16
ROOT
ATOM      1  C   UNL     1     -28.571  -1.615  11.721  1.00  0.00    +0.013 C 
ATOM      2  C   UNL     1     -28.367  -0.681  10.523  1.00  0.00    +0.023 C 
ATOM      3  C   UNL     1     -29.645   0.072  10.268  1.00  0.00    -0.024 C 
ATOM      4  C   UNL     1     -29.767   1.408  10.312  1.00  0.00    -0.076 C 
ATOM      5  C   UNL     1     -31.066   2.096   9.996  1.00  0.00    +0.039 C 
ATOM      6  C   UNL     1     -28.614   2.311  10.658  1.00  0.00    +0.046 C 
ATOM      7  C   UNL     1     -27.414   1.607  11.314  1.00  0.00    +0.118 C 
ATOM      8  C   UNL     1     -27.123   0.222  10.695  1.00  0.00    +0.120 C 
ENDROOT
BRANCH   8   9
ATOM      9  C   UNL     1     -26.408   0.391   9.369  1.00  0.00    +0.307 C 
ATOM     10  O   UNL     1     -26.242   1.423   8.741  1.00  0.00    -0.252 OA
BRANCH   9  11
ATOM     11  O   UNL     1     -25.889  -0.767   8.910  1.00  0.00    -0.481 OA
ATOM     12  H   UNL     1     -25.208  -1.003   9.575  1.00  0.00    +0.296 HD
ENDBRANCH   9  11
ENDBRANCH   8   9
BRANCH   7  13
ATOM     13  C   UNL     1     -27.528   1.510  12.823  1.00  0.00    +0.307 C 
ATOM     14  O   UNL     1     -28.369   2.048  13.525  1.00  0.00    -0.252 OA
BRANCH  13  15
ATOM     15  O   UNL     1     -26.656   0.651  13.382  1.00  0.00    -0.481 OA
ATOM     16  H   UNL     1     -26.361   0.092  12.634  1.00  0.00    +0.296 HD
ENDBRANCH  13  15
ENDBRANCH   7  13
TORSDOF 4
ENDMDL
MODEL 7
REMARK VINA RESULT:    -5.882      2.942      3.969
REMARK INTER + INTRA:          -7.058
REMARK INTER:                  -6.788
REMARK INTRA:                  -0.271
REMARK UNBOUND:                -0.145
REMARK SMILES CC1=C[C@H](C)[C@@H](C(=O)O)[C@H](C(=O)O)C1
REMARK SMILES IDX 5 1 4 2 3 3 2 4 1 5 14 6 10 7 6 8 7 9 8 10 9 11 11 13 12 14
REMARK SMILES IDX 13 15
REMARK H PARENT 9 12 13 16
ROOT
ATOM      1  C   UNL     1     -32.382   5.165   9.038  1.00  0.00    +0.013 C 
ATOM      2  C   UNL     1     -33.112   3.817   8.994  1.00  0.00    +0.023 C 
ATOM      3  C   UNL     1     -32.469   2.881   9.983  1.00  0.00    -0.024 C 
ATOM      4  C   UNL     1     -33.100   2.320  11.026  1.00  0.00    -0.076 C 
ATOM      5  C   UNL     1     -32.406   1.354  11.945  1.00  0.00    +0.039 C 
ATOM      6  C   UNL     1     -34.545   2.601  11.339  1.00  0.00    +0.046 C 
ATOM      7  C   UNL     1     -35.134   3.832  10.631  1.00  0.00    +0.118 C 
ATOM      8  C   UNL     1     -34.640   3.978   9.174  1.00  0.00    +0.120 C 
ENDROOT
BRANCH   8   9
ATOM      9  C   UNL     1     -35.380   3.003   8.280  1.00  0.00    +0.307 C 
ATOM     10  O   UNL     1     -36.425   2.422   8.520  1.00  0.00    -0.252 OA
BRANCH   9  11
ATOM     11  O   UNL     1     -34.777   2.838   7.085  1.00  0.00    -0.481 OA
ATOM     12  H   UNL     1     -33.977   3.401   7.141  1.00  0.00    +0.296 HD
ENDBRANCH   9  11
ENDBRANCH   8   9
BRANCH   7  13
ATOM     13  C   UNL     1     -34.928   5.122  11.401  1.00  0.00    +0.307 C 
ATOM     14  O   UNL     1     -34.003   5.379  12.156  1.00  0.00    -0.252 OA
BRANCH  13  15
ATOM     15  O   UNL     1     -35.823   6.083  11.108  1.00  0.00    -0.481 OA
ATOM     16  H   UNL     1     -35.298   6.910  11.129  1.00  0.00    +0.296 HD
ENDBRANCH  13  15
ENDBRANCH   7  13
TORSDOF 4
ENDMDL
MODEL 8
REMARK VINA RESULT:    -5.875      1.885      3.157
REMARK INTER + INTRA:          -7.051
REMARK INTER:                  -6.827
REMARK INTRA:                  -0.224
REMARK UNBOUND:                -0.145
REMARK SMILES CC1=C[C@H](C)[C@@H](C(=O)O)[C@H](C(=O)O)C1
REMARK SMILES IDX 5 1 4 2 3 3 2 4 1 5 14 6 10 7 6 8 7 9 8 10 9 11 11 13 12 14
REMARK SMILES IDX 13 15
REMARK H PARENT 9 12 13 16
ROOT
ATOM      1  C   UNL     1     -34.834   6.304   7.630  1.00  0.00    +0.013 C 
ATOM      2  C   UNL     1     -34.745   5.004   8.438  1.00  0.00    +0.023 C 
ATOM      3  C   UNL     1     -34.038   5.284   9.737  1.00  0.00    -0.024 C 
ATOM      4  C   UNL     1     -34.574   5.103  10.954  1.00  0.00    -0.076 C 
ATOM      5  C   UNL     1     -33.790   5.357  12.211  1.00  0.00    +0.039 C 
ATOM      6  C   UNL     1     -35.985   4.618  11.148  1.00  0.00    +0.046 C 
ATOM      7  C   UNL     1     -36.878   4.702   9.899  1.00  0.00    +0.118 C 
ATOM      8  C   UNL     1     -36.126   4.326   8.601  1.00  0.00    +0.120 C 
ENDROOT
BRANCH   8   9
ATOM      9  C   UNL     1     -35.987   2.820   8.506  1.00  0.00    +0.307 C 
ATOM     10  O   UNL     1     -36.523   1.978   9.206  1.00  0.00    -0.252 OA
BRANCH   9  11
ATOM     11  O   UNL     1     -35.196   2.438   7.482  1.00  0.00    -0.481 OA
ATOM     12  H   UNL     1     -34.313   2.323   7.893  1.00  0.00    +0.296 HD
ENDBRANCH   9  11
ENDBRANCH   8   9
BRANCH   7  13
ATOM     13  C   UNL     1     -37.575   6.040   9.749  1.00  0.00    +0.307 C 
ATOM     14  O   UNL     1     -38.272   6.396   8.813  1.00  0.00    -0.252 OA
BRANCH  13  15
ATOM     15  O   UNL     1     -37.468   6.835  10.829  1.00  0.00    -0.481 OA
ATOM     16  H   UNL     1     -36.564   7.208  10.761  1.00  0.00    +0.296 HD
ENDBRANCH  13  15
ENDBRANCH   7  13
TORSDOF 4
ENDMDL
MODEL 9
REMARK VINA RESULT:    -5.865     10.438     12.068
REMARK INTER + INTRA:          -7.039
REMARK INTER:                  -6.681
REMARK INTRA:                  -0.359
REMARK UNBOUND:                -0.145
REMARK SMILES CC1=C[C@H](C)[C@@H](C(=O)O)[C@H](C(=O)O)C1
REMARK SMILES IDX 5 1 4 2 3 3 2 4 1 5 14 6 10 7 6 8 7 9 8 10 9 11 11 13 12 14
REMARK SMILES IDX 13 15
REMARK H PARENT 9 12 13 16
ROOT
ATOM      1  C   UNL     1     -27.322  -0.134   9.633  1.00  0.00    +0.013 C 
ATOM      2  C   UNL     1     -26.042   0.708   9.632  1.00  0.00    +0.023 C 
ATOM      3  C   UNL     1     -26.374   2.102   9.169  1.00  0.00    -0.024 C 
ATOM      4  C   UNL     1     -26.192   3.214   9.898  1.00  0.00    -0.076 C 
ATOM      5  C   UNL     1     -26.501   4.580   9.351  1.00  0.00    +0.039 C 
ATOM      6  C   UNL     1     -25.649   3.177  11.301  1.00  0.00    +0.046 C 
ATOM      7  C   UNL     1     -25.673   1.792  11.969  1.00  0.00    +0.118 C 
ATOM      8  C   UNL     1     -25.308   0.651  10.993  1.00  0.00    +0.120 C 
ENDROOT
BRANCH   8   9
ATOM      9  C   UNL     1     -23.807   0.618  10.780  1.00  0.00    +0.307 C 
ATOM     10  O   UNL     1     -23.194   0.903   9.765  1.00  0.00    -0.252 OA
BRANCH   9  11
ATOM     11  O   UNL     1     -23.135   0.260  11.894  1.00  0.00    -0.481 OA
ATOM     12  H   UNL     1     -23.689  -0.445  12.291  1.00  0.00    +0.296 HD
ENDBRANCH   9  11
ENDBRANCH   8   9
BRANCH   7  13
ATOM     13  C   UNL     1     -26.977   1.493  12.683  1.00  0.00    +0.307 C 
ATOM     14  O   UNL     1     -28.000   2.157  12.637  1.00  0.00    -0.252 OA
BRANCH  13  15
ATOM     15  O   UNL     1     -26.987   0.315  13.332  1.00  0.00    -0.481 OA
ATOM     16  H   UNL     1     -26.047   0.164  13.566  1.00  0.00    +0.296 HD
ENDBRANCH  13  15
ENDBRANCH   7  13
TORSDOF 4
ENDMDL
