MODEL 1
REMARK VINA RESULT:    -4.725      0.000      0.000
REMARK INTER + INTRA:          -6.057
REMARK INTER:                  -5.829
REMARK INTRA:                  -0.228
REMARK UNBOUND:                -0.228
REMARK SMILES CCCC[C@H](C)N=C=S
REMARK SMILES IDX 3 1 2 2 1 3 4 4 5 5 6 6 7 7 8 8 9 9
REMARK H PARENT
ROOT
ATOM      1  C   UNL     1     -30.537  11.966   7.599  1.00  0.00    +0.002 C 
ENDROOT
BRANCH   1   2
ATOM      2  C   UNL     1     -31.656  11.029   8.054  1.00  0.00    -0.003 C 
ATOM      3  C   UNL     1     -31.652   9.734   7.254  1.00  0.00    +0.004 C 
ENDBRANCH   1   2
BRANCH   1   4
ATOM      4  C   UNL     1     -29.940  11.589   6.236  1.00  0.00    +0.028 C 
BRANCH   4   5
ATOM      5  C   UNL     1     -28.420  11.796   6.110  1.00  0.00    +0.113 C 
ATOM      6  C   UNL     1     -28.084  12.914   5.120  1.00  0.00    +0.034 C 
BRANCH   5   7
ATOM      7  N   UNL     1     -27.701  10.544   5.776  1.00  0.00    -0.229 NA
ATOM      8  C   UNL     1     -27.880   9.614   6.471  1.00  0.00    +0.059 C 
ATOM      9  S   UNL     1     -28.134   8.178   7.523  1.00  0.00    -0.006 S 
ENDBRANCH   5   7
ENDBRANCH   4   5
ENDBRANCH   1   4
TORSDOF 4
ENDMDL
MODEL 2
REMARK VINA RESULT:    -4.600      2.302      3.892
REMARK INTER + INTRA:          -5.903
REMARK INTER:                  -5.675
REMARK INTRA:                  -0.228
REMARK UNBOUND:                -0.228
REMARK SMILES CCCC[C@H](C)N=C=S
REMARK SMILES IDX 3 1 2 2 1 3 4 4 5 5 6 6 7 7 8 8 9 9
REMARK H PARENT
ROOT
ATOM      1  C   UNL     1     -27.229  10.515   5.397  1.00  0.00    +0.002 C 
ENDROOT
BRANCH   1   2
ATOM      2  C   UNL     1     -27.368  12.037   5.382  1.00  0.00    -0.003 C 
ATOM      3  C   UNL     1     -28.806  12.464   5.639  1.00  0.00    +0.004 C 
ENDBRANCH   1   2
BRANCH   1   4
ATOM      4  C   UNL     1     -27.354   9.903   6.799  1.00  0.00    +0.028 C 
BRANCH   4   5
ATOM      5  C   UNL     1     -28.316   8.707   6.906  1.00  0.00    +0.113 C 
ATOM      6  C   UNL     1     -29.764   9.164   7.106  1.00  0.00    +0.034 C 
BRANCH   5   7
ATOM      7  N   UNL     1     -27.907   7.738   7.949  1.00  0.00    -0.229 NA
ATOM      8  C   UNL     1     -26.953   7.085   7.739  1.00  0.00    +0.059 C 
ATOM      9  S   UNL     1     -25.499   6.071   7.437  1.00  0.00    -0.006 S 
ENDBRANCH   5   7
ENDBRANCH   4   5
ENDBRANCH   1   4
TORSDOF 4
ENDMDL
MODEL 3
REMARK VINA RESULT:    -4.489      2.591      3.070
REMARK INTER + INTRA:          -5.766
REMARK INTER:                  -5.602
REMARK INTRA:                  -0.164
REMARK UNBOUND:                -0.228
REMARK SMILES CCCC[C@H](C)N=C=S
REMARK SMILES IDX 3 1 2 2 1 3 4 4 5 5 6 6 7 7 8 8 9 9
REMARK H PARENT
ROOT
ATOM      1  C   UNL     1     -28.851   9.614   6.802  1.00  0.00    +0.002 C 
ENDROOT
BRANCH   1   2
ATOM      2  C   UNL     1     -29.472   8.302   7.281  1.00  0.00    -0.003 C 
ATOM      3  C   UNL     1     -28.460   7.454   8.037  1.00  0.00    +0.004 C 
ENDBRANCH   1   2
BRANCH   1   4
ATOM      4  C   UNL     1     -27.621   9.417   5.906  1.00  0.00    +0.028 C 
BRANCH   4   5
ATOM      5  C   UNL     1     -26.522  10.483   6.060  1.00  0.00    +0.113 C 
ATOM      6  C   UNL     1     -26.633  11.566   4.983  1.00  0.00    +0.034 C 
BRANCH   5   7
ATOM      7  N   UNL     1     -25.162   9.899   6.101  1.00  0.00    -0.229 NA
ATOM      8  C   UNL     1     -25.052   8.807   6.521  1.00  0.00    +0.059 C 
ATOM      9  S   UNL     1     -24.860   7.140   7.166  1.00  0.00    -0.006 S 
ENDBRANCH   5   7
ENDBRANCH   4   5
ENDBRANCH   1   4
TORSDOF 4
ENDMDL
MODEL 4
REMARK VINA RESULT:    -4.423      7.576      9.304
REMARK INTER + INTRA:          -5.684
REMARK INTER:                  -5.458
REMARK INTRA:                  -0.226
REMARK UNBOUND:                -0.228
REMARK SMILES CCCC[C@H](C)N=C=S
REMARK SMILES IDX 3 1 2 2 1 3 4 4 5 5 6 6 7 7 8 8 9 9
REMARK H PARENT
ROOT
ATOM      1  C   UNL     1     -25.106   4.975   9.221  1.00  0.00    +0.002 C 
ENDROOT
BRANCH   1   2
ATOM      2  C   UNL     1     -26.171   5.565   8.298  1.00  0.00    -0.003 C 
ATOM      3  C   UNL     1     -25.547   6.172   7.050  1.00  0.00    +0.004 C 
ENDBRANCH   1   2
BRANCH   1   4
ATOM      4  C   UNL     1     -25.598   3.767  10.030  1.00  0.00    +0.028 C 
BRANCH   4   5
ATOM      5  C   UNL     1     -26.692   2.926   9.348  1.00  0.00    +0.113 C 
ATOM      6  C   UNL     1     -27.901   2.724  10.265  1.00  0.00    +0.034 C 
BRANCH   5   7
ATOM      7  N   UNL     1     -26.181   1.634   8.836  1.00  0.00    -0.229 NA
ATOM      8  C   UNL     1     -25.543   0.973   9.569  1.00  0.00    +0.059 C 
ATOM      9  S   UNL     1     -24.560  -0.053  10.671  1.00  0.00    -0.006 S 
ENDBRANCH   5   7
ENDBRANCH   4   5
ENDBRANCH   1   4
TORSDOF 4
ENDMDL
MODEL 5
REMARK VINA RESULT:    -4.297      1.795      2.451
REMARK INTER + INTRA:          -5.529
REMARK INTER:                  -5.404
REMARK INTRA:                  -0.125
REMARK UNBOUND:                -0.228
REMARK SMILES CCCC[C@H](C)N=C=S
REMARK SMILES IDX 3 1 2 2 1 3 4 4 5 5 6 6 7 7 8 8 9 9
REMARK H PARENT
ROOT
ATOM      1  C   UNL     1     -31.333   9.360   6.945  1.00  0.00    +0.002 C 
ENDROOT
BRANCH   1   2
ATOM      2  C   UNL     1     -31.965   7.973   6.832  1.00  0.00    -0.003 C 
ATOM      3  C   UNL     1     -32.120   7.553   5.377  1.00  0.00    +0.004 C 
ENDBRANCH   1   2
BRANCH   1   4
ATOM      4  C   UNL     1     -29.798   9.334   6.949  1.00  0.00    +0.028 C 
BRANCH   4   5
ATOM      5  C   UNL     1     -29.122  10.716   6.946  1.00  0.00    +0.113 C 
ATOM      6  C   UNL     1     -30.141  11.841   6.746  1.00  0.00    +0.034 C 
BRANCH   5   7
ATOM      7  N   UNL     1     -28.017  10.807   5.963  1.00  0.00    -0.229 NA
ATOM      8  C   UNL     1     -27.019  10.239   6.214  1.00  0.00    +0.059 C 
ATOM      9  S   UNL     1     -25.481   9.383   6.579  1.00  0.00    -0.006 S 
ENDBRANCH   5   7
ENDBRANCH   4   5
ENDBRANCH   1   4
TORSDOF 4
ENDMDL
MODEL 6
REMARK VINA RESULT:    -4.279      6.902      8.917
REMARK INTER + INTRA:          -5.507
REMARK INTER:                  -5.374
REMARK INTRA:                  -0.134
REMARK UNBOUND:                -0.228
REMARK SMILES CCCC[C@H](C)N=C=S
REMARK SMILES IDX 3 1 2 2 1 3 4 4 5 5 6 6 7 7 8 8 9 9
REMARK H PARENT
ROOT
ATOM      1  C   UNL     1     -34.087   5.604   6.160  1.00  0.00    +0.002 C 
ENDROOT
BRANCH   1   2
ATOM      2  C   UNL     1     -33.442   6.421   5.041  1.00  0.00    -0.003 C 
ATOM      3  C   UNL     1     -32.333   7.315   5.577  1.00  0.00    +0.004 C 
ENDBRANCH   1   2
BRANCH   1   4
ATOM      4  C   UNL     1     -34.552   6.456   7.349  1.00  0.00    +0.028 C 
BRANCH   4   5
ATOM      5  C   UNL     1     -35.271   5.680   8.467  1.00  0.00    +0.113 C 
ATOM      6  C   UNL     1     -35.520   4.222   8.070  1.00  0.00    +0.034 C 
BRANCH   5   7
ATOM      7  N   UNL     1     -36.521   6.342   8.907  1.00  0.00    -0.229 NA
ATOM      8  C   UNL     1     -37.166   5.796   9.723  1.00  0.00    +0.059 C 
ATOM      9  S   UNL     1     -38.172   4.976  10.968  1.00  0.00    -0.006 S 
ENDBRANCH   5   7
ENDBRANCH   4   5
ENDBRANCH   1   4
TORSDOF 4
ENDMDL
MODEL 7
REMARK VINA RESULT:    -4.234      2.258      4.112
REMARK INTER + INTRA:          -5.452
REMARK INTER:                  -5.242
REMARK INTRA:                  -0.210
REMARK UNBOUND:                -0.228
REMARK SMILES CCCC[C@H](C)N=C=S
REMARK SMILES IDX 3 1 2 2 1 3 4 4 5 5 6 6 7 7 8 8 9 9
REMARK H PARENT
ROOT
ATOM      1  C   UNL     1     -28.049   9.006   7.494  1.00  0.00    +0.002 C 
ENDROOT
BRANCH   1   2
ATOM      2  C   UNL     1     -26.800   8.604   6.710  1.00  0.00    -0.003 C 
ATOM      3  C   UNL     1     -26.973   8.867   5.221  1.00  0.00    +0.004 C 
ENDBRANCH   1   2
BRANCH   1   4
ATOM      4  C   UNL     1     -29.184   9.534   6.606  1.00  0.00    +0.028 C 
BRANCH   4   5
ATOM      5  C   UNL     1     -30.098  10.581   7.267  1.00  0.00    +0.113 C 
ATOM      6  C   UNL     1     -31.515  10.041   7.475  1.00  0.00    +0.034 C 
BRANCH   5   7
ATOM      7  N   UNL     1     -30.113  11.868   6.535  1.00  0.00    -0.229 NA
ATOM      8  C   UNL     1     -29.127  12.190   5.982  1.00  0.00    +0.059 C 
ATOM      9  S   UNL     1     -27.628  12.705   5.133  1.00  0.00    -0.006 S 
ENDBRANCH   5   7
ENDBRANCH   4   5
ENDBRANCH   1   4
TORSDOF 4
ENDMDL
MODEL 8
REMARK VINA RESULT:    -4.100      2.515      3.959
REMARK INTER + INTRA:          -5.287
REMARK INTER:                  -5.188
REMARK INTRA:                  -0.098
REMARK UNBOUND:                -0.228
REMARK SMILES CCCC[C@H](C)N=C=S
REMARK SMILES IDX 3 1 2 2 1 3 4 4 5 5 6 6 7 7 8 8 9 9
REMARK H PARENT
ROOT
ATOM      1  C   UNL     1     -32.226   7.371   6.415  1.00  0.00    +0.002 C 
ENDROOT
BRANCH   1   2
ATOM      2  C   UNL     1     -32.957   6.767   5.216  1.00  0.00    -0.003 C 
ATOM      3  C   UNL     1     -33.894   5.647   5.647  1.00  0.00    +0.004 C 
ENDBRANCH   1   2
BRANCH   1   4
ATOM      4  C   UNL     1     -31.704   8.792   6.160  1.00  0.00    +0.028 C 
BRANCH   4   5
ATOM      5  C   UNL     1     -31.050   9.475   7.374  1.00  0.00    +0.113 C 
ATOM      6  C   UNL     1     -32.017  10.438   8.067  1.00  0.00    +0.034 C 
BRANCH   5   7
ATOM      7  N   UNL     1     -29.773  10.144   7.033  1.00  0.00    -0.229 NA
ATOM      8  C   UNL     1     -28.808   9.476   6.977  1.00  0.00    +0.059 C 
ATOM      9  S   UNL     1     -27.317   8.475   6.892  1.00  0.00    -0.006 S 
ENDBRANCH   5   7
ENDBRANCH   4   5
ENDBRANCH   1   4
TORSDOF 4
ENDMDL
MODEL 9
REMARK VINA RESULT:    -3.987      2.201      2.822
REMARK INTER + INTRA:          -5.147
REMARK INTER:                  -4.983
REMARK INTRA:                  -0.164
REMARK UNBOUND:                -0.228
REMARK SMILES CCCC[C@H](C)N=C=S
REMARK SMILES IDX 3 1 2 2 1 3 4 4 5 5 6 6 7 7 8 8 9 9
REMARK H PARENT
ROOT
ATOM      1  C   UNL     1     -31.012   8.559   7.671  1.00  0.00    +0.002 C 
ENDROOT
BRANCH   1   2
ATOM      2  C   UNL     1     -32.075   9.635   7.455  1.00  0.00    -0.003 C 
ATOM      3  C   UNL     1     -31.575  11.003   7.898  1.00  0.00    +0.004 C 
ENDBRANCH   1   2
BRANCH   1   4
ATOM      4  C   UNL     1     -29.862   8.622   6.655  1.00  0.00    +0.028 C 
BRANCH   4   5
ATOM      5  C   UNL     1     -28.483   8.957   7.251  1.00  0.00    +0.113 C 
ATOM      6  C   UNL     1     -27.856  10.175   6.568  1.00  0.00    +0.034 C 
BRANCH   5   7
ATOM      7  N   UNL     1     -27.561   7.798   7.241  1.00  0.00    -0.229 NA
ATOM      8  C   UNL     1     -26.432   8.004   6.992  1.00  0.00    +0.059 C 
ATOM      9  S   UNL     1     -24.700   8.296   6.607  1.00  0.00    -0.006 S 
ENDBRANCH   5   7
ENDBRANCH   4   5
ENDBRANCH   1   4
TORSDOF 4
ENDMDL
