REMARK SMILES CCOC(=O)C(=O)N(CCC(=O)O)c1ccccc1
REMARK SMILES IDX 8 1 6 2 7 3 4 4 5 5 3 6 2 7 1 8 9 9 10 10 11 11 12 12 13 13
REMARK SMILES IDX 14 15 15 16 19 17 16 18 18 19 17 20
REMARK H PARENT 13 14
ROOT
ATOM      1  N   UNL     1      -0.330   0.908  -0.535  1.00  0.00    -0.302 N 
ENDROOT
BRANCH   1   2
ATOM      2  C   UNL     1       1.031   1.240  -0.643  1.00  0.00    +0.336 C 
ATOM      3  O   UNL     1       1.476   2.379  -0.519  1.00  0.00    -0.261 OA
BRANCH   2   4
ATOM      4  C   UNL     1       2.002   0.124  -1.058  1.00  0.00    +0.397 C 
ATOM      5  O   UNL     1       1.898  -0.492  -2.103  1.00  0.00    -0.240 OA
BRANCH   4   6
ATOM      6  O   UNL     1       2.950  -0.019  -0.104  1.00  0.00    -0.459 OA
BRANCH   6   7
ATOM      7  C   UNL     1       3.978  -0.975  -0.397  1.00  0.00    +0.230 C 
ATOM      8  C   UNL     1       3.551  -2.362   0.043  1.00  0.00    +0.049 C 
ENDBRANCH   6   7
ENDBRANCH   4   6
ENDBRANCH   2   4
ENDBRANCH   1   2
BRANCH   1   9
ATOM      9  C   UNL     1      -1.280   2.027  -0.475  1.00  0.00    +0.138 C 
BRANCH   9  10
ATOM     10  C   UNL     1      -1.577   2.450   0.960  1.00  0.00    +0.144 C 
BRANCH  10  11
ATOM     11  C   UNL     1      -2.431   3.682   1.013  1.00  0.00    +0.305 C 
ATOM     12  O   UNL     1      -2.318   4.595   1.814  1.00  0.00    -0.252 OA
BRANCH  11  13
ATOM     13  O   UNL     1      -3.442   3.683   0.126  1.00  0.00    -0.481 OA
ATOM     14  H   UNL     1      -3.921   4.518   0.318  1.00  0.00    +0.296 HD
ENDBRANCH  11  13
ENDBRANCH  10  11
ENDBRANCH   9  10
ENDBRANCH   1   9
BRANCH   1  15
ATOM     15  C   UNL     1      -0.806  -0.406  -0.243  1.00  0.00    +0.044 A 
ATOM     16  C   UNL     1      -0.100  -1.256   0.620  1.00  0.00    +0.026 A 
ATOM     17  C   UNL     1      -2.025  -0.858  -0.767  1.00  0.00    +0.026 A 
ATOM     18  C   UNL     1      -0.583  -2.532   0.925  1.00  0.00    +0.002 A 
ATOM     19  C   UNL     1      -2.506  -2.135  -0.465  1.00  0.00    +0.002 A 
ATOM     20  C   UNL     1      -1.784  -2.973   0.379  1.00  0.00    +0.000 A 
ENDBRANCH   1  15
TORSDOF 9
