REMARK SMILES C[C@@H](CCN(CC(=O)O)CC(=O)O)N(CC(=O)O)CC(=O)O
REMARK SMILES IDX 3 1 2 2 1 3 14 4 15 5 16 6 17 7 18 8 19 10 20 11 21 12 22 13
REMARK SMILES IDX 4 15 5 16 6 17 7 18 8 19 9 20 10 22 11 23 12 24 13 25
REMARK H PARENT 18 9 22 14 9 21 13 26
ROOT
ATOM      1  C   UNL     1       0.042   0.247   0.553  1.00  0.00    +0.034 C 
ENDROOT
BRANCH   1   2
ATOM      2  C   UNL     1      -0.770   1.519   0.207  1.00  0.00    +0.056 C 
ATOM      3  C   UNL     1      -0.335   2.708   1.076  1.00  0.00    +0.024 C 
BRANCH   2   4
ATOM      4  N   UNL     1      -2.238   1.385   0.326  1.00  0.00    -0.280 NA
BRANCH   4   5
ATOM      5  C   UNL     1      -2.903   1.014  -0.943  1.00  0.00    +0.208 C 
BRANCH   5   6
ATOM      6  C   UNL     1      -2.508  -0.346  -1.490  1.00  0.00    +0.317 C 
ATOM      7  O   UNL     1      -1.607  -0.572  -2.283  1.00  0.00    -0.251 OA
BRANCH   6   8
ATOM      8  O   UNL     1      -3.237  -1.355  -0.970  1.00  0.00    -0.480 OA
ATOM      9  H   UNL     1      -2.850  -2.167  -1.359  1.00  0.00    +0.296 HD
ENDBRANCH   6   8
ENDBRANCH   5   6
ENDBRANCH   4   5
BRANCH   4  10
ATOM     10  C   UNL     1      -2.708   0.616   1.499  1.00  0.00    +0.208 C 
BRANCH  10  11
ATOM     11  C   UNL     1      -4.188   0.827   1.809  1.00  0.00    +0.317 C 
ATOM     12  O   UNL     1      -4.938  -0.007   2.300  1.00  0.00    -0.251 OA
BRANCH  11  13
ATOM     13  O   UNL     1      -4.647   2.073   1.568  1.00  0.00    -0.480 OA
ATOM     14  H   UNL     1      -5.577   2.046   1.872  1.00  0.00    +0.296 HD
ENDBRANCH  11  13
ENDBRANCH  10  11
ENDBRANCH   4  10
ENDBRANCH   2   4
ENDBRANCH   1   2
BRANCH   1  15
ATOM     15  C   UNL     1       1.513   0.361   0.114  1.00  0.00    +0.087 C 
BRANCH  15  16
ATOM     16  N   UNL     1       2.219  -0.929   0.227  1.00  0.00    -0.283 NA
BRANCH  16  17
ATOM     17  C   UNL     1       3.680  -0.726   0.408  1.00  0.00    +0.208 C 
BRANCH  17  18
ATOM     18  C   UNL     1       4.339   0.097  -0.690  1.00  0.00    +0.317 C 
ATOM     19  O   UNL     1       4.373   1.317  -0.753  1.00  0.00    -0.251 OA
BRANCH  18  20
ATOM     20  O   UNL     1       4.867  -0.647  -1.682  1.00  0.00    -0.480 OA
ATOM     21  H   UNL     1       5.225   0.011  -2.312  1.00  0.00    +0.296 HD
ENDBRANCH  18  20
ENDBRANCH  17  18
ENDBRANCH  16  17
BRANCH  16  22
ATOM     22  C   UNL     1       1.920  -1.810  -0.927  1.00  0.00    +0.208 C 
BRANCH  22  23
ATOM     23  C   UNL     1       2.264  -3.261  -0.624  1.00  0.00    +0.317 C 
ATOM     24  O   UNL     1       3.377  -3.766  -0.605  1.00  0.00    -0.251 OA
BRANCH  23  25
ATOM     25  O   UNL     1       1.178  -4.013  -0.340  1.00  0.00    -0.480 OA
ATOM     26  H   UNL     1       1.559  -4.889  -0.127  1.00  0.00    +0.296 HD
ENDBRANCH  23  25
ENDBRANCH  22  23
ENDBRANCH  16  22
ENDBRANCH  15  16
ENDBRANCH   1  15
TORSDOF 16
