REMARK SMILES O=C(Nc1ccccc1C(=O)O)Nc1ccccc1C(=O)O
REMARK SMILES IDX 3 1 2 2 1 3 13 4 4 7 9 8 8 9 5 10 7 11 6 12 10 13 11 14
REMARK SMILES IDX 12 15 14 17 19 18 15 19 18 20 16 21 17 22 20 23 21 24 22 25
REMARK H PARENT 3 5 13 6 12 16 22 26
ROOT
ATOM      1  N   UNL     1      -1.116  -0.094   0.193  1.00  0.00    -0.307 N 
ATOM      2  C   UNL     1      -0.140   0.415  -0.648  1.00  0.00    +0.323 C 
ATOM      3  O   UNL     1      -0.359   1.064  -1.662  1.00  0.00    -0.248 OA
ATOM      4  N   UNL     1       1.120   0.083  -0.176  1.00  0.00    -0.307 N 
ATOM      5  H   UNL     1      -0.790  -0.740   0.910  1.00  0.00    +0.171 HD
ATOM      6  H   UNL     1       1.150  -0.327   0.756  1.00  0.00    +0.171 HD
ENDROOT
BRANCH   1   7
ATOM      7  C   UNL     1      -2.525   0.060   0.117  1.00  0.00    +0.057 A 
ATOM      8  C   UNL     1      -3.356  -0.653   1.013  1.00  0.00    +0.083 A 
ATOM      9  C   UNL     1      -4.754  -0.502   0.952  1.00  0.00    +0.018 A 
ATOM     10  C   UNL     1      -3.131   0.915  -0.813  1.00  0.00    +0.027 A 
ATOM     11  C   UNL     1      -5.333   0.350   0.014  1.00  0.00    +0.001 A 
ATOM     12  C   UNL     1      -4.522   1.057  -0.865  1.00  0.00    +0.002 A 
BRANCH   8  13
ATOM     13  C   UNL     1      -2.762  -1.570   2.025  1.00  0.00    +0.337 C 
ATOM     14  O   UNL     1      -1.572  -1.790   2.170  1.00  0.00    -0.246 OA
BRANCH  13  15
ATOM     15  O   UNL     1      -3.675  -2.171   2.809  1.00  0.00    -0.478 OA
ATOM     16  H   UNL     1      -3.144  -2.732   3.413  1.00  0.00    +0.297 HD
ENDBRANCH  13  15
ENDBRANCH   8  13
ENDBRANCH   1   7
BRANCH   4  17
ATOM     17  C   UNL     1       2.386   0.350  -0.758  1.00  0.00    +0.057 A 
ATOM     18  C   UNL     1       3.566   0.032  -0.043  1.00  0.00    +0.083 A 
ATOM     19  C   UNL     1       2.516   0.909  -2.036  1.00  0.00    +0.027 A 
ATOM     20  C   UNL     1       4.827   0.285  -0.613  1.00  0.00    +0.018 A 
ATOM     21  C   UNL     1       3.775   1.157  -2.593  1.00  0.00    +0.002 A 
ATOM     22  C   UNL     1       4.929   0.847  -1.883  1.00  0.00    +0.001 A 
BRANCH  18  23
ATOM     23  C   UNL     1       3.484  -0.570   1.317  1.00  0.00    +0.337 C 
ATOM     24  O   UNL     1       2.454  -0.827   1.917  1.00  0.00    -0.246 OA
BRANCH  23  25
ATOM     25  O   UNL     1       4.685  -0.824   1.867  1.00  0.00    -0.478 OA
ATOM     26  H   UNL     1       4.473  -1.210   2.743  1.00  0.00    +0.297 HD
ENDBRANCH  23  25
ENDBRANCH  18  23
ENDBRANCH   4  17
TORSDOF 6
