REMARK SMILES CCCCCCCCCCOC(=O)c1ccccn1
REMARK SMILES IDX 7 1 6 2 5 3 4 4 3 5 2 6 1 7 8 8 9 9 10 10 11 11 12 12 13 13
REMARK SMILES IDX 14 14 15 15 19 16 16 17 18 18 17 19
REMARK H PARENT
ROOT
ATOM      1  C   UNL     1       0.985  -0.573   0.747  1.00  0.00    +0.000 C 
ENDROOT
BRANCH   1   2
ATOM      2  C   UNL     1       2.438  -0.167   1.002  1.00  0.00    +0.000 C 
BRANCH   2   3
ATOM      3  C   UNL     1       3.365  -1.386   0.984  1.00  0.00    -0.000 C 
BRANCH   3   4
ATOM      4  C   UNL     1       4.834  -1.025   1.228  1.00  0.00    -0.000 C 
BRANCH   4   5
ATOM      5  C   UNL     1       5.681  -0.896  -0.043  1.00  0.00    -0.000 C 
BRANCH   5   6
ATOM      6  C   UNL     1       5.250   0.236  -0.973  1.00  0.00    -0.003 C 
ATOM      7  C   UNL     1       6.226   0.407  -2.128  1.00  0.00    +0.004 C 
ENDBRANCH   5   6
ENDBRANCH   4   5
ENDBRANCH   3   4
ENDBRANCH   2   3
ENDBRANCH   1   2
BRANCH   1   8
ATOM      8  C   UNL     1       0.056   0.642   0.771  1.00  0.00    +0.003 C 
BRANCH   8   9
ATOM      9  C   UNL     1      -1.395   0.237   0.516  1.00  0.00    +0.042 C 
BRANCH   9  10
ATOM     10  C   UNL     1      -2.327   1.445   0.541  1.00  0.00    +0.233 C 
BRANCH  10  11
ATOM     11  O   UNL     1      -3.684   1.021   0.348  1.00  0.00    -0.461 OA
BRANCH  11  12
ATOM     12  C   UNL     1      -4.096   0.909  -0.940  1.00  0.00    +0.356 C 
ATOM     13  O   UNL     1      -3.416   1.132  -1.932  1.00  0.00    -0.244 OA
BRANCH  12  14
ATOM     14  C   UNL     1      -5.522   0.464  -1.003  1.00  0.00    +0.148 A 
ATOM     15  C   UNL     1      -6.112   0.292  -2.252  1.00  0.00    +0.036 A 
ATOM     16  N   UNL     1      -6.182   0.245   0.167  1.00  0.00    -0.249 NA
ATOM     17  C   UNL     1      -7.440  -0.123  -2.309  1.00  0.00    +0.004 A 
ATOM     18  C   UNL     1      -7.468  -0.157   0.076  1.00  0.00    +0.112 A 
ATOM     19  C   UNL     1      -8.132  -0.352  -1.125  1.00  0.00    +0.020 A 
ENDBRANCH  12  14
ENDBRANCH  11  12
ENDBRANCH  10  11
ENDBRANCH   9  10
ENDBRANCH   8   9
ENDBRANCH   1   8
TORSDOF 11
