REMARK SMILES O=C(O)c1cnc(O)nc1O
REMARK SMILES IDX 4 1 10 2 9 3 7 4 6 5 5 6 2 7 1 8 3 9 11 11 8 13
REMARK H PARENT 3 10 11 12 8 14
ROOT
ATOM      1  C   UNL     1      -0.607  -0.257   0.005  1.00  0.00    +0.140 A 
ATOM      2  C   UNL     1       0.160   0.642   0.715  1.00  0.00    +0.232 A 
ATOM      3  N   UNL     1       1.437   0.965   0.435  1.00  0.00    -0.159 NA
ATOM      4  C   UNL     1       1.941   0.331  -0.626  1.00  0.00    +0.317 A 
ATOM      5  N   UNL     1       1.325  -0.558  -1.405  1.00  0.00    -0.203 NA
ATOM      6  C   UNL     1       0.045  -0.835  -1.065  1.00  0.00    +0.138 A 
ENDROOT
BRANCH   1   7
ATOM      7  C   UNL     1      -2.002  -0.579   0.348  1.00  0.00    +0.342 C 
ATOM      8  O   UNL     1      -2.670  -0.135   1.260  1.00  0.00    -0.246 OA
BRANCH   7   9
ATOM      9  O   UNL     1      -2.529  -1.485  -0.499  1.00  0.00    -0.477 OA
ATOM     10  H   UNL     1      -3.444  -1.610  -0.166  1.00  0.00    +0.297 HD
ENDBRANCH   7   9
ENDBRANCH   1   7
BRANCH   2  11
ATOM     11  O   UNL     1      -0.310   1.309   1.799  1.00  0.00    -0.493 OA
ATOM     12  H   UNL     1       0.458   1.846   2.058  1.00  0.00    +0.295 HD
ENDBRANCH   2  11
BRANCH   4  13
ATOM     13  O   UNL     1       3.227   0.642  -0.925  1.00  0.00    -0.479 OA
ATOM     14  H   UNL     1       3.411   1.285  -0.222  1.00  0.00    +0.297 HD
ENDBRANCH   4  13
TORSDOF 4
