MODEL 1
REMARK VINA RESULT:    -5.030      0.000      0.000
REMARK INTER + INTRA:          -5.030
REMARK INTER:                  -5.030
REMARK INTRA:                   0.000
REMARK UNBOUND:                 0.000
REMARK SMILES O=C1CC=NC(=S)N1
REMARK SMILES IDX 1 1 2 2 3 3 4 4 5 5 6 6 7 7 8 8
REMARK H PARENT 8 9
ROOT
ATOM      1  O   UNL     1     -32.148  -0.141   1.711  1.00  0.00    -0.274 OA
ATOM      2  C   UNL     1     -32.949  -0.867   1.129  1.00  0.00    +0.231 C 
ATOM      3  C   UNL     1     -33.773  -1.886   1.842  1.00  0.00    +0.148 C 
ATOM      4  C   UNL     1     -34.676  -2.654   0.945  1.00  0.00    +0.097 C 
ATOM      5  N   UNL     1     -34.770  -2.488  -0.332  1.00  0.00    -0.233 NA
ATOM      6  C   UNL     1     -34.001  -1.546  -0.959  1.00  0.00    +0.199 C 
ATOM      7  S   UNL     1     -34.059  -1.266  -2.610  1.00  0.00    -0.038 S 
ATOM      8  N   UNL     1     -33.136  -0.786  -0.219  1.00  0.00    -0.301 N 
ATOM      9  H   UNL     1     -32.584  -0.100  -0.713  1.00  0.00    +0.172 HD
ENDROOT
TORSDOF 0
ENDMDL
MODEL 2
REMARK VINA RESULT:    -4.614      2.701      3.044
REMARK INTER + INTRA:          -4.614
REMARK INTER:                  -4.614
REMARK INTRA:                   0.000
REMARK UNBOUND:                 0.000
REMARK SMILES O=C1CC=NC(=S)N1
REMARK SMILES IDX 1 1 2 2 3 3 4 4 5 5 6 6 7 7 8 8
REMARK H PARENT 8 9
ROOT
ATOM      1  O   UNL     1     -33.787  -0.866  -2.084  1.00  0.00    -0.274 OA
ATOM      2  C   UNL     1     -33.751  -1.078  -0.876  1.00  0.00    +0.231 C 
ATOM      3  C   UNL     1     -34.259  -2.342  -0.268  1.00  0.00    +0.148 C 
ATOM      4  C   UNL     1     -34.120  -2.390   1.211  1.00  0.00    +0.097 C 
ATOM      5  N   UNL     1     -33.614  -1.451   1.939  1.00  0.00    -0.233 NA
ATOM      6  C   UNL     1     -33.156  -0.302   1.355  1.00  0.00    +0.199 C 
ATOM      7  S   UNL     1     -32.487   0.966   2.223  1.00  0.00    -0.038 S 
ATOM      8  N   UNL     1     -33.241  -0.162  -0.005  1.00  0.00    -0.301 N 
ATOM      9  H   UNL     1     -32.894   0.699  -0.403  1.00  0.00    +0.172 HD
ENDROOT
TORSDOF 0
ENDMDL
MODEL 3
REMARK VINA RESULT:    -4.581     14.896     15.398
REMARK INTER + INTRA:          -4.581
REMARK INTER:                  -4.581
REMARK INTRA:                   0.000
REMARK UNBOUND:                 0.000
REMARK SMILES O=C1CC=NC(=S)N1
REMARK SMILES IDX 1 1 2 2 3 3 4 4 5 5 6 6 7 7 8 8
REMARK H PARENT 8 9
ROOT
ATOM      1  O   UNL     1     -28.027  13.715   4.810  1.00  0.00    -0.274 OA
ATOM      2  C   UNL     1     -28.215  12.639   5.370  1.00  0.00    +0.231 C 
ATOM      3  C   UNL     1     -27.195  11.550   5.377  1.00  0.00    +0.148 C 
ATOM      4  C   UNL     1     -27.629  10.334   6.113  1.00  0.00    +0.097 C 
ATOM      5  N   UNL     1     -28.768  10.191   6.704  1.00  0.00    -0.233 NA
ATOM      6  C   UNL     1     -29.684  11.207   6.681  1.00  0.00    +0.199 C 
ATOM      7  S   UNL     1     -31.185  11.106   7.420  1.00  0.00    -0.038 S 
ATOM      8  N   UNL     1     -29.378  12.370   6.027  1.00  0.00    -0.301 N 
ATOM      9  H   UNL     1     -30.077  13.099   6.030  1.00  0.00    +0.172 HD
ENDROOT
TORSDOF 0
ENDMDL
MODEL 4
REMARK VINA RESULT:    -4.568     14.627     15.115
REMARK INTER + INTRA:          -4.568
REMARK INTER:                  -4.568
REMARK INTRA:                   0.000
REMARK UNBOUND:                 0.000
REMARK SMILES O=C1CC=NC(=S)N1
REMARK SMILES IDX 1 1 2 2 3 3 4 4 5 5 6 6 7 7 8 8
REMARK H PARENT 8 9
ROOT
ATOM      1  O   UNL     1     -29.232  10.084   7.221  1.00  0.00    -0.274 OA
ATOM      2  C   UNL     1     -28.138  10.273   6.698  1.00  0.00    +0.231 C 
ATOM      3  C   UNL     1     -27.863  11.444   5.816  1.00  0.00    +0.148 C 
ATOM      4  C   UNL     1     -26.473  11.478   5.289  1.00  0.00    +0.097 C 
ATOM      5  N   UNL     1     -25.561  10.601   5.545  1.00  0.00    -0.233 NA
ATOM      6  C   UNL     1     -25.842   9.537   6.357  1.00  0.00    +0.199 C 
ATOM      7  S   UNL     1     -24.720   8.352   6.740  1.00  0.00    -0.038 S 
ATOM      8  N   UNL     1     -27.097   9.416   6.892  1.00  0.00    -0.301 N 
ATOM      9  H   UNL     1     -27.270   8.618   7.487  1.00  0.00    +0.172 HD
ENDROOT
TORSDOF 0
ENDMDL
MODEL 5
REMARK VINA RESULT:    -4.536     13.299     13.421
REMARK INTER + INTRA:          -4.536
REMARK INTER:                  -4.536
REMARK INTRA:                   0.000
REMARK UNBOUND:                 0.000
REMARK SMILES O=C1CC=NC(=S)N1
REMARK SMILES IDX 1 1 2 2 3 3 4 4 5 5 6 6 7 7 8 8
REMARK H PARENT 8 9
ROOT
ATOM      1  O   UNL     1     -28.241   7.700   8.253  1.00  0.00    -0.274 OA
ATOM      2  C   UNL     1     -27.339   6.875   8.145  1.00  0.00    +0.231 C 
ATOM      3  C   UNL     1     -26.286   6.971   7.093  1.00  0.00    +0.148 C 
ATOM      4  C   UNL     1     -25.292   5.867   7.144  1.00  0.00    +0.097 C 
ATOM      5  N   UNL     1     -25.301   4.899   7.998  1.00  0.00    -0.233 NA
ATOM      6  C   UNL     1     -26.279   4.836   8.952  1.00  0.00    +0.199 C 
ATOM      7  S   UNL     1     -26.367   3.616  10.098  1.00  0.00    -0.038 S 
ATOM      8  N   UNL     1     -27.243   5.808   8.989  1.00  0.00    -0.301 N 
ATOM      9  H   UNL     1     -27.950   5.731   9.706  1.00  0.00    +0.172 HD
ENDROOT
TORSDOF 0
ENDMDL
MODEL 6
REMARK VINA RESULT:    -4.447     13.296     13.857
REMARK INTER + INTRA:          -4.447
REMARK INTER:                  -4.447
REMARK INTRA:                   0.000
REMARK UNBOUND:                 0.000
REMARK SMILES O=C1CC=NC(=S)N1
REMARK SMILES IDX 1 1 2 2 3 3 4 4 5 5 6 6 7 7 8 8
REMARK H PARENT 8 9
ROOT
ATOM      1  O   UNL     1     -26.146   4.059  12.907  1.00  0.00    -0.274 OA
ATOM      2  C   UNL     1     -26.054   3.678  11.744  1.00  0.00    +0.231 C 
ATOM      3  C   UNL     1     -25.892   2.241  11.382  1.00  0.00    +0.148 C 
ATOM      4  C   UNL     1     -25.801   2.002   9.917  1.00  0.00    +0.097 C 
ATOM      5  N   UNL     1     -25.853   2.921   9.012  1.00  0.00    -0.233 NA
ATOM      6  C   UNL     1     -26.002   4.232   9.373  1.00  0.00    +0.199 C 
ATOM      7  S   UNL     1     -26.078   5.487   8.265  1.00  0.00    -0.038 S 
ATOM      8  N   UNL     1     -26.095   4.554  10.700  1.00  0.00    -0.301 N 
ATOM      9  H   UNL     1     -26.205   5.532  10.932  1.00  0.00    +0.172 HD
ENDROOT
TORSDOF 0
ENDMDL
MODEL 7
REMARK VINA RESULT:    -4.330     12.700     13.535
REMARK INTER + INTRA:          -4.330
REMARK INTER:                  -4.330
REMARK INTRA:                   0.000
REMARK UNBOUND:                 0.000
REMARK SMILES O=C1CC=NC(=S)N1
REMARK SMILES IDX 1 1 2 2 3 3 4 4 5 5 6 6 7 7 8 8
REMARK H PARENT 8 9
ROOT
ATOM      1  O   UNL     1     -26.140   0.669   9.102  1.00  0.00    -0.274 OA
ATOM      2  C   UNL     1     -25.785   1.764   9.528  1.00  0.00    +0.231 C 
ATOM      3  C   UNL     1     -24.899   1.913  10.718  1.00  0.00    +0.148 C 
ATOM      4  C   UNL     1     -24.593   3.327  11.060  1.00  0.00    +0.097 C 
ATOM      5  N   UNL     1     -25.030   4.357  10.416  1.00  0.00    -0.233 NA
ATOM      6  C   UNL     1     -25.841   4.191   9.327  1.00  0.00    +0.199 C 
ATOM      7  S   UNL     1     -26.454   5.470   8.435  1.00  0.00    -0.038 S 
ATOM      8  N   UNL     1     -26.181   2.925   8.932  1.00  0.00    -0.301 N 
ATOM      9  H   UNL     1     -26.782   2.838   8.125  1.00  0.00    +0.172 HD
ENDROOT
TORSDOF 0
ENDMDL
MODEL 8
REMARK VINA RESULT:    -4.253     13.651     14.453
REMARK INTER + INTRA:          -4.253
REMARK INTER:                  -4.253
REMARK INTRA:                   0.000
REMARK UNBOUND:                 0.000
REMARK SMILES O=C1CC=NC(=S)N1
REMARK SMILES IDX 1 1 2 2 3 3 4 4 5 5 6 6 7 7 8 8
REMARK H PARENT 8 9
ROOT
ATOM      1  O   UNL     1     -26.093   1.367   8.795  1.00  0.00    -0.274 OA
ATOM      2  C   UNL     1     -25.065   1.381   9.465  1.00  0.00    +0.231 C 
ATOM      3  C   UNL     1     -24.610   2.591  10.209  1.00  0.00    +0.148 C 
ATOM      4  C   UNL     1     -23.340   2.389  10.955  1.00  0.00    +0.097 C 
ATOM      5  N   UNL     1     -22.663   1.289  10.982  1.00  0.00    -0.233 NA
ATOM      6  C   UNL     1     -23.104   0.195  10.290  1.00  0.00    +0.199 C 
ATOM      7  S   UNL     1     -22.289  -1.269  10.271  1.00  0.00    -0.038 S 
ATOM      8  N   UNL     1     -24.266   0.281   9.571  1.00  0.00    -0.301 N 
ATOM      9  H   UNL     1     -24.563  -0.545   9.072  1.00  0.00    +0.172 HD
ENDROOT
TORSDOF 0
ENDMDL
MODEL 9
REMARK VINA RESULT:    -4.251     11.466     11.885
REMARK INTER + INTRA:          -4.251
REMARK INTER:                  -4.251
REMARK INTRA:                   0.000
REMARK UNBOUND:                 0.000
REMARK SMILES O=C1CC=NC(=S)N1
REMARK SMILES IDX 1 1 2 2 3 3 4 4 5 5 6 6 7 7 8 8
REMARK H PARENT 8 9
ROOT
ATOM      1  O   UNL     1     -37.305   7.053  11.031  1.00  0.00    -0.274 OA
ATOM      2  C   UNL     1     -36.869   6.207  10.255  1.00  0.00    +0.231 C 
ATOM      3  C   UNL     1     -37.277   4.774  10.321  1.00  0.00    +0.148 C 
ATOM      4  C   UNL     1     -36.629   3.923   9.288  1.00  0.00    +0.097 C 
ATOM      5  N   UNL     1     -35.790   4.343   8.401  1.00  0.00    -0.233 NA
ATOM      6  C   UNL     1     -35.434   5.663   8.364  1.00  0.00    +0.199 C 
ATOM      7  S   UNL     1     -34.353   6.292   7.249  1.00  0.00    -0.038 S 
ATOM      8  N   UNL     1     -35.977   6.529   9.276  1.00  0.00    -0.301 N 
ATOM      9  H   UNL     1     -35.693   7.496   9.220  1.00  0.00    +0.172 HD
ENDROOT
TORSDOF 0
ENDMDL
