REMARK SMILES N#CSCCSC#N
REMARK SMILES IDX 4 1 3 2 1 3 2 4 5 5 6 6 7 7 8 8
REMARK H PARENT
ROOT
ATOM      1  C   UNL     1      -0.210  -0.436  -0.633  1.00  0.00    +0.098 C 
ENDROOT
BRANCH   1   2
ATOM      2  S   UNL     1      -1.579   0.411  -1.487  1.00  0.00    -0.046 SA
ATOM      3  N   UNL     1      -3.673  -0.376   0.275  1.00  0.00    -0.185 NA
ATOM      4  C   UNL     1      -2.838  -0.051  -0.459  1.00  0.00    +0.133 C 
ENDBRANCH   1   2
BRANCH   1   5
ATOM      5  C   UNL     1       0.210   0.313   0.633  1.00  0.00    +0.098 C 
BRANCH   5   6
ATOM      6  S   UNL     1       1.579  -0.533   1.487  1.00  0.00    -0.046 SA
ATOM      7  C   UNL     1       2.838  -0.072   0.459  1.00  0.00    +0.133 C 
ATOM      8  N   UNL     1       3.673   0.253  -0.275  1.00  0.00    -0.185 NA
ENDBRANCH   5   6
ENDBRANCH   1   5
TORSDOF 3
