MODEL 1
REMARK VINA RESULT:   -10.563      0.000      0.000
REMARK INTER + INTRA:         -13.549
REMARK INTER:                 -13.342
REMARK INTRA:                  -0.207
REMARK UNBOUND:                -0.207
REMARK SMILES Nc1cccc(C(=O)Nc2ccc3c(O)cc(S(=O)(=O)O)cc3c2)c1
REMARK SMILES IDX 10 1 24 2 23 3 22 4 17 5 16 6 14 7 13 8 12 9 11 10 9 11 7 12
REMARK SMILES IDX 8 13 6 15 2 16 3 17 25 18 4 19 5 20 1 21 18 24 19 25 20 26
REMARK SMILES IDX 21 27 15 29
REMARK H PARENT 9 14 1 22 1 23 21 28 15 30
ROOT
ATOM      1  C   UNL     1     -26.997   6.151   8.132  1.00  0.00    +0.042 A 
ATOM      2  C   UNL     1     -28.029   7.088   8.089  1.00  0.00    +0.035 A 
ATOM      3  C   UNL     1     -27.887   8.306   7.397  1.00  0.00    -0.011 A 
ATOM      4  C   UNL     1     -28.953   9.220   7.357  1.00  0.00    +0.032 A 
ATOM      5  C   UNL     1     -28.826  10.422   6.660  1.00  0.00    +0.098 A 
ATOM      6  C   UNL     1     -27.638  10.750   6.015  1.00  0.00    +0.069 A 
ATOM      7  C   UNL     1     -26.573   9.855   6.064  1.00  0.00    +0.124 A 
ATOM      8  C   UNL     1     -26.673   8.610   6.733  1.00  0.00    +0.024 A 
ATOM      9  C   UNL     1     -25.646   7.642   6.770  1.00  0.00    +0.015 A 
ATOM     10  C   UNL     1     -25.808   6.434   7.460  1.00  0.00    +0.027 A 
ENDROOT
BRANCH   1  11
ATOM     11  N   UNL     1     -27.081   4.911   8.801  1.00  0.00    -0.322 N 
ATOM     12  C   UNL     1     -26.134   4.342   9.634  1.00  0.00    +0.255 C 
ATOM     13  O   UNL     1     -25.017   4.778   9.883  1.00  0.00    -0.269 OA
ATOM     14  H   UNL     1     -27.897   4.353   8.591  1.00  0.00    +0.170 HD
BRANCH  12  15
ATOM     15  C   UNL     1     -26.532   3.037  10.235  1.00  0.00    +0.042 A 
ATOM     16  C   UNL     1     -25.979   0.860  11.166  1.00  0.00    +0.032 A 
ATOM     17  C   UNL     1     -27.345   0.596  11.300  1.00  0.00    +0.025 A 
ATOM     18  C   UNL     1     -25.581   2.066  10.582  1.00  0.00    +0.039 A 
ATOM     19  C   UNL     1     -28.300   1.549  10.941  1.00  0.00    +0.003 A 
ATOM     20  C   UNL     1     -27.894   2.772  10.411  1.00  0.00    +0.014 A 
BRANCH  16  21
ATOM     21  N   UNL     1     -25.044  -0.154  11.398  1.00  0.00    -0.399 N 
ATOM     22  H   UNL     1     -24.247   0.115  11.967  1.00  0.00    +0.156 HD
ATOM     23  H   UNL     1     -25.448  -1.040  11.687  1.00  0.00    +0.156 HD
ENDBRANCH  16  21
ENDBRANCH  12  15
ENDBRANCH   1  11
BRANCH   5  24
ATOM     24  S   UNL     1     -30.168  11.568   6.629  1.00  0.00    +0.294 S 
ATOM     25  O   UNL     1     -30.476  11.951   7.990  1.00  0.00    -0.194 OA
ATOM     26  O   UNL     1     -29.890  12.554   5.610  1.00  0.00    -0.194 OA
BRANCH  24  27
ATOM     27  O   UNL     1     -31.439  10.723   6.105  1.00  0.00    -0.282 OA
ATOM     28  H   UNL     1     -31.797  10.216   6.864  1.00  0.00    +0.234 HD
ENDBRANCH  24  27
ENDBRANCH   5  24
BRANCH   7  29
ATOM     29  O   UNL     1     -25.433  10.272   5.431  1.00  0.00    -0.507 OA
ATOM     30  H   UNL     1     -25.680  10.776   4.641  1.00  0.00    +0.293 HD
ENDBRANCH   7  29
TORSDOF 6
ENDMDL
MODEL 2
REMARK VINA RESULT:   -10.330      4.773      6.568
REMARK INTER + INTRA:         -13.255
REMARK INTER:                 -12.768
REMARK INTRA:                  -0.487
REMARK UNBOUND:                -0.207
REMARK SMILES Nc1cccc(C(=O)Nc2ccc3c(O)cc(S(=O)(=O)O)cc3c2)c1
REMARK SMILES IDX 10 1 24 2 23 3 22 4 17 5 16 6 14 7 13 8 12 9 11 10 9 11 7 12
REMARK SMILES IDX 8 13 6 15 2 16 3 17 25 18 4 19 5 20 1 21 18 24 19 25 20 26
REMARK SMILES IDX 21 27 15 29
REMARK H PARENT 9 14 1 22 1 23 21 28 15 30
ROOT
ATOM      1  C   UNL     1     -31.695   7.911   7.912  1.00  0.00    +0.042 A 
ATOM      2  C   UNL     1     -30.331   7.762   7.661  1.00  0.00    +0.035 A 
ATOM      3  C   UNL     1     -29.557   8.822   7.153  1.00  0.00    -0.011 A 
ATOM      4  C   UNL     1     -28.182   8.644   6.928  1.00  0.00    +0.032 A 
ATOM      5  C   UNL     1     -27.405   9.695   6.439  1.00  0.00    +0.098 A 
ATOM      6  C   UNL     1     -27.978  10.926   6.140  1.00  0.00    +0.069 A 
ATOM      7  C   UNL     1     -29.343  11.103   6.346  1.00  0.00    +0.124 A 
ATOM      8  C   UNL     1     -30.160  10.073   6.872  1.00  0.00    +0.024 A 
ATOM      9  C   UNL     1     -31.537  10.213   7.150  1.00  0.00    +0.015 A 
ATOM     10  C   UNL     1     -32.289   9.148   7.661  1.00  0.00    +0.027 A 
ENDROOT
BRANCH   1  11
ATOM     11  N   UNL     1     -32.521   6.890   8.428  1.00  0.00    -0.322 N 
ATOM     12  C   UNL     1     -33.213   5.929   7.713  1.00  0.00    +0.255 C 
ATOM     13  O   UNL     1     -33.294   5.837   6.494  1.00  0.00    -0.269 OA
ATOM     14  H   UNL     1     -32.672   6.910   9.428  1.00  0.00    +0.170 HD
BRANCH  12  15
ATOM     15  C   UNL     1     -33.968   4.950   8.546  1.00  0.00    +0.042 A 
ATOM     16  C   UNL     1     -35.987   3.698   9.063  1.00  0.00    +0.032 A 
ATOM     17  C   UNL     1     -35.338   3.156  10.176  1.00  0.00    +0.025 A 
ATOM     18  C   UNL     1     -35.310   4.638   8.280  1.00  0.00    +0.039 A 
ATOM     19  C   UNL     1     -34.008   3.474  10.458  1.00  0.00    +0.003 A 
ATOM     20  C   UNL     1     -33.320   4.370   9.641  1.00  0.00    +0.014 A 
BRANCH  16  21
ATOM     21  N   UNL     1     -37.356   3.480   8.875  1.00  0.00    -0.399 N 
ATOM     22  H   UNL     1     -37.626   2.508   8.761  1.00  0.00    +0.156 HD
ATOM     23  H   UNL     1     -37.953   3.976   9.529  1.00  0.00    +0.156 HD
ENDBRANCH  16  21
ENDBRANCH  12  15
ENDBRANCH   1  11
BRANCH   5  24
ATOM     24  S   UNL     1     -25.680   9.454   6.148  1.00  0.00    +0.294 S 
ATOM     25  O   UNL     1     -25.046   9.114   7.404  1.00  0.00    -0.194 OA
ATOM     26  O   UNL     1     -25.538   8.618   4.978  1.00  0.00    -0.194 OA
BRANCH  24  27
ATOM     27  O   UNL     1     -25.110  10.907   5.738  1.00  0.00    -0.282 OA
ATOM     28  H   UNL     1     -24.818  10.862   4.803  1.00  0.00    +0.234 HD
ENDBRANCH  24  27
ENDBRANCH   5  24
BRANCH   7  29
ATOM     29  O   UNL     1     -29.829  12.335   5.996  1.00  0.00    -0.507 OA
ATOM     30  H   UNL     1     -29.096  12.882   5.675  1.00  0.00    +0.293 HD
ENDBRANCH   7  29
TORSDOF 6
ENDMDL
MODEL 3
REMARK VINA RESULT:   -10.074      5.254      9.386
REMARK INTER + INTRA:         -12.932
REMARK INTER:                 -12.539
REMARK INTRA:                  -0.393
REMARK UNBOUND:                -0.207
REMARK SMILES Nc1cccc(C(=O)Nc2ccc3c(O)cc(S(=O)(=O)O)cc3c2)c1
REMARK SMILES IDX 10 1 24 2 23 3 22 4 17 5 16 6 14 7 13 8 12 9 11 10 9 11 7 12
REMARK SMILES IDX 8 13 6 15 2 16 3 17 25 18 4 19 5 20 1 21 18 24 19 25 20 26
REMARK SMILES IDX 21 27 15 29
REMARK H PARENT 9 14 1 22 1 23 21 28 15 30
ROOT
ATOM      1  C   UNL     1     -31.534   7.666   7.231  1.00  0.00    +0.042 A 
ATOM      2  C   UNL     1     -31.173   6.534   7.960  1.00  0.00    +0.035 A 
ATOM      3  C   UNL     1     -32.135   5.599   8.390  1.00  0.00    -0.011 A 
ATOM      4  C   UNL     1     -31.736   4.460   9.107  1.00  0.00    +0.032 A 
ATOM      5  C   UNL     1     -32.681   3.521   9.523  1.00  0.00    +0.098 A 
ATOM      6  C   UNL     1     -34.034   3.707   9.261  1.00  0.00    +0.069 A 
ATOM      7  C   UNL     1     -34.436   4.843   8.564  1.00  0.00    +0.124 A 
ATOM      8  C   UNL     1     -33.506   5.802   8.096  1.00  0.00    +0.024 A 
ATOM      9  C   UNL     1     -33.851   6.943   7.340  1.00  0.00    +0.015 A 
ATOM     10  C   UNL     1     -32.879   7.859   6.916  1.00  0.00    +0.027 A 
ENDROOT
BRANCH   1  11
ATOM     11  N   UNL     1     -30.617   8.633   6.765  1.00  0.00    -0.322 N 
ATOM     12  C   UNL     1     -30.514   9.953   7.167  1.00  0.00    +0.255 C 
ATOM     13  O   UNL     1     -31.250  10.543   7.949  1.00  0.00    -0.269 OA
ATOM     14  H   UNL     1     -30.017   8.340   6.006  1.00  0.00    +0.170 HD
BRANCH  12  15
ATOM     15  C   UNL     1     -29.409  10.719   6.524  1.00  0.00    +0.042 A 
ATOM     16  C   UNL     1     -27.113  10.903   5.743  1.00  0.00    +0.032 A 
ATOM     17  C   UNL     1     -27.372  12.224   5.368  1.00  0.00    +0.025 A 
ATOM     18  C   UNL     1     -28.126  10.171   6.371  1.00  0.00    +0.039 A 
ATOM     19  C   UNL     1     -28.640  12.783   5.533  1.00  0.00    +0.003 A 
ATOM     20  C   UNL     1     -29.661  12.030   6.109  1.00  0.00    +0.014 A 
BRANCH  16  21
ATOM     21  N   UNL     1     -25.807  10.405   5.700  1.00  0.00    -0.399 N 
ATOM     22  H   UNL     1     -25.719   9.407   5.865  1.00  0.00    +0.156 HD
ATOM     23  H   UNL     1     -25.265  10.717   4.901  1.00  0.00    +0.156 HD
ENDBRANCH  16  21
ENDBRANCH  12  15
ENDBRANCH   1  11
BRANCH   5  24
ATOM     24  S   UNL     1     -32.168   2.100  10.436  1.00  0.00    +0.294 S 
ATOM     25  O   UNL     1     -30.723   2.038  10.414  1.00  0.00    -0.194 OA
ATOM     26  O   UNL     1     -32.909   2.075  11.677  1.00  0.00    -0.194 OA
BRANCH  24  27
ATOM     27  O   UNL     1     -32.683   0.834   9.577  1.00  0.00    -0.282 OA
ATOM     28  H   UNL     1     -32.007   0.639   8.893  1.00  0.00    +0.234 HD
ENDBRANCH  24  27
ENDBRANCH   5  24
BRANCH   7  29
ATOM     29  O   UNL     1     -35.788   4.962   8.377  1.00  0.00    -0.507 OA
ATOM     30  H   UNL     1     -36.246   4.521   9.109  1.00  0.00    +0.293 HD
ENDBRANCH   7  29
TORSDOF 6
ENDMDL
MODEL 4
REMARK VINA RESULT:    -9.868      1.578      2.215
REMARK INTER + INTRA:         -12.671
REMARK INTER:                 -12.478
REMARK INTRA:                  -0.193
REMARK UNBOUND:                -0.207
REMARK SMILES Nc1cccc(C(=O)Nc2ccc3c(O)cc(S(=O)(=O)O)cc3c2)c1
REMARK SMILES IDX 10 1 24 2 23 3 22 4 17 5 16 6 14 7 13 8 12 9 11 10 9 11 7 12
REMARK SMILES IDX 8 13 6 15 2 16 3 17 25 18 4 19 5 20 1 21 18 24 19 25 20 26
REMARK SMILES IDX 21 27 15 29
REMARK H PARENT 9 14 1 22 1 23 21 28 15 30
ROOT
ATOM      1  C   UNL     1     -25.971   5.850   8.243  1.00  0.00    +0.042 A 
ATOM      2  C   UNL     1     -27.291   6.281   8.374  1.00  0.00    +0.035 A 
ATOM      3  C   UNL     1     -27.775   7.393   7.660  1.00  0.00    -0.011 A 
ATOM      4  C   UNL     1     -29.114   7.790   7.800  1.00  0.00    +0.032 A 
ATOM      5  C   UNL     1     -29.605   8.882   7.083  1.00  0.00    +0.098 A 
ATOM      6  C   UNL     1     -28.776   9.613   6.240  1.00  0.00    +0.069 A 
ATOM      7  C   UNL     1     -27.443   9.233   6.109  1.00  0.00    +0.124 A 
ATOM      8  C   UNL     1     -26.914   8.112   6.793  1.00  0.00    +0.024 A 
ATOM      9  C   UNL     1     -25.587   7.650   6.658  1.00  0.00    +0.015 A 
ATOM     10  C   UNL     1     -25.126   6.537   7.373  1.00  0.00    +0.027 A 
ENDROOT
BRANCH   1  11
ATOM     11  N   UNL     1     -25.430   4.738   8.925  1.00  0.00    -0.322 N 
ATOM     12  C   UNL     1     -26.102   3.603   9.342  1.00  0.00    +0.255 C 
ATOM     13  O   UNL     1     -27.306   3.390   9.261  1.00  0.00    -0.269 OA
ATOM     14  H   UNL     1     -24.459   4.817   9.193  1.00  0.00    +0.170 HD
BRANCH  12  15
ATOM     15  C   UNL     1     -25.246   2.574   9.998  1.00  0.00    +0.042 A 
ATOM     16  C   UNL     1     -24.866   0.309  10.798  1.00  0.00    +0.032 A 
ATOM     17  C   UNL     1     -23.619   0.715  11.283  1.00  0.00    +0.025 A 
ATOM     18  C   UNL     1     -25.698   1.261  10.202  1.00  0.00    +0.039 A 
ATOM     19  C   UNL     1     -23.168   2.024  11.101  1.00  0.00    +0.003 A 
ATOM     20  C   UNL     1     -23.980   2.954  10.455  1.00  0.00    +0.014 A 
BRANCH  16  21
ATOM     21  N   UNL     1     -25.359  -0.961  11.111  1.00  0.00    -0.399 N 
ATOM     22  H   UNL     1     -26.361  -1.010  11.266  1.00  0.00    +0.156 HD
ATOM     23  H   UNL     1     -25.022  -1.703  10.505  1.00  0.00    +0.156 HD
ENDBRANCH  16  21
ENDBRANCH  12  15
ENDBRANCH   1  11
BRANCH   5  24
ATOM     24  S   UNL     1     -31.288   9.379   7.279  1.00  0.00    +0.294 S 
ATOM     25  O   UNL     1     -32.057   8.235   7.718  1.00  0.00    -0.194 OA
ATOM     26  O   UNL     1     -31.303  10.627   8.009  1.00  0.00    -0.194 OA
BRANCH  24  27
ATOM     27  O   UNL     1     -31.807   9.722   5.790  1.00  0.00    -0.282 OA
ATOM     28  H   UNL     1     -32.746   9.444   5.727  1.00  0.00    +0.234 HD
ENDBRANCH  24  27
ENDBRANCH   5  24
BRANCH   7  29
ATOM     29  O   UNL     1     -26.690  10.027   5.284  1.00  0.00    -0.507 OA
ATOM     30  H   UNL     1     -26.065   9.469   4.797  1.00  0.00    +0.293 HD
ENDBRANCH   7  29
TORSDOF 6
ENDMDL
MODEL 5
REMARK VINA RESULT:    -9.728      3.773      8.711
REMARK INTER + INTRA:         -12.494
REMARK INTER:                 -12.395
REMARK INTRA:                  -0.099
REMARK UNBOUND:                -0.207
REMARK SMILES Nc1cccc(C(=O)Nc2ccc3c(O)cc(S(=O)(=O)O)cc3c2)c1
REMARK SMILES IDX 10 1 24 2 23 3 22 4 17 5 16 6 14 7 13 8 12 9 11 10 9 11 7 12
REMARK SMILES IDX 8 13 6 15 2 16 3 17 25 18 4 19 5 20 1 21 18 24 19 25 20 26
REMARK SMILES IDX 21 27 15 29
REMARK H PARENT 9 14 1 22 1 23 21 28 15 30
ROOT
ATOM      1  C   UNL     1     -26.767   6.550   7.907  1.00  0.00    +0.042 A 
ATOM      2  C   UNL     1     -27.721   5.664   8.407  1.00  0.00    +0.035 A 
ATOM      3  C   UNL     1     -27.349   4.444   9.004  1.00  0.00    -0.011 A 
ATOM      4  C   UNL     1     -28.333   3.582   9.514  1.00  0.00    +0.032 A 
ATOM      5  C   UNL     1     -27.972   2.378  10.121  1.00  0.00    +0.098 A 
ATOM      6  C   UNL     1     -26.638   1.996  10.208  1.00  0.00    +0.069 A 
ATOM      7  C   UNL     1     -25.659   2.840   9.690  1.00  0.00    +0.124 A 
ATOM      8  C   UNL     1     -25.982   4.085   9.097  1.00  0.00    +0.024 A 
ATOM      9  C   UNL     1     -25.029   5.002   8.604  1.00  0.00    +0.015 A 
ATOM     10  C   UNL     1     -25.418   6.214   8.019  1.00  0.00    +0.027 A 
ENDROOT
BRANCH   1  11
ATOM     11  N   UNL     1     -27.077   7.790   7.308  1.00  0.00    -0.322 N 
ATOM     12  C   UNL     1     -28.307   8.422   7.275  1.00  0.00    +0.255 C 
ATOM     13  O   UNL     1     -29.370   7.983   7.699  1.00  0.00    -0.269 OA
ATOM     14  H   UNL     1     -26.327   8.226   6.789  1.00  0.00    +0.170 HD
BRANCH  12  15
ATOM     15  C   UNL     1     -28.310   9.753   6.604  1.00  0.00    +0.042 A 
ATOM     16  C   UNL     1     -27.290  11.409   5.146  1.00  0.00    +0.032 A 
ATOM     17  C   UNL     1     -28.350  12.276   5.427  1.00  0.00    +0.025 A 
ATOM     18  C   UNL     1     -27.251  10.165   5.782  1.00  0.00    +0.039 A 
ATOM     19  C   UNL     1     -29.400  11.881   6.258  1.00  0.00    +0.003 A 
ATOM     20  C   UNL     1     -29.383  10.617   6.845  1.00  0.00    +0.014 A 
BRANCH  16  21
ATOM     21  N   UNL     1     -26.181  11.868   4.427  1.00  0.00    -0.399 N 
ATOM     22  H   UNL     1     -25.299  11.425   4.665  1.00  0.00    +0.156 HD
ATOM     23  H   UNL     1     -26.327  11.932   3.425  1.00  0.00    +0.156 HD
ENDBRANCH  16  21
ENDBRANCH  12  15
ENDBRANCH   1  11
BRANCH   5  24
ATOM     24  S   UNL     1     -29.220   1.297  10.745  1.00  0.00    +0.294 S 
ATOM     25  O   UNL     1     -28.870   0.926  12.099  1.00  0.00    -0.194 OA
ATOM     26  O   UNL     1     -30.508   1.871  10.426  1.00  0.00    -0.194 OA
BRANCH  24  27
ATOM     27  O   UNL     1     -29.096  -0.050   9.866  1.00  0.00    -0.282 OA
ATOM     28  H   UNL     1     -28.754   0.199   8.980  1.00  0.00    +0.234 HD
ENDBRANCH  24  27
ENDBRANCH   5  24
BRANCH   7  29
ATOM     29  O   UNL     1     -24.375   2.372   9.790  1.00  0.00    -0.507 OA
ATOM     30  H   UNL     1     -24.393   1.403   9.781  1.00  0.00    +0.293 HD
ENDBRANCH   7  29
TORSDOF 6
ENDMDL
MODEL 6
REMARK VINA RESULT:    -9.601      8.358     11.625
REMARK INTER + INTRA:         -12.333
REMARK INTER:                 -11.830
REMARK INTRA:                  -0.503
REMARK UNBOUND:                -0.207
REMARK SMILES Nc1cccc(C(=O)Nc2ccc3c(O)cc(S(=O)(=O)O)cc3c2)c1
REMARK SMILES IDX 10 1 24 2 23 3 22 4 17 5 16 6 14 7 13 8 12 9 11 10 9 11 7 12
REMARK SMILES IDX 8 13 6 15 2 16 3 17 25 18 4 19 5 20 1 21 18 24 19 25 20 26
REMARK SMILES IDX 21 27 15 29
REMARK H PARENT 9 14 1 22 1 23 21 28 15 30
ROOT
ATOM      1  C   UNL     1     -33.272   1.810  11.239  1.00  0.00    +0.042 A 
ATOM      2  C   UNL     1     -32.769   1.558  12.515  1.00  0.00    +0.035 A 
ATOM      3  C   UNL     1     -31.489   1.002  12.703  1.00  0.00    -0.011 A 
ATOM      4  C   UNL     1     -31.004   0.778  14.002  1.00  0.00    +0.032 A 
ATOM      5  C   UNL     1     -29.731   0.243  14.198  1.00  0.00    +0.098 A 
ATOM      6  C   UNL     1     -28.930  -0.105  13.115  1.00  0.00    +0.069 A 
ATOM      7  C   UNL     1     -29.411   0.100  11.826  1.00  0.00    +0.124 A 
ATOM      8  C   UNL     1     -30.684   0.673  11.585  1.00  0.00    +0.024 A 
ATOM      9  C   UNL     1     -31.201   0.952  10.301  1.00  0.00    +0.015 A 
ATOM     10  C   UNL     1     -32.475   1.511  10.134  1.00  0.00    +0.027 A 
ENDROOT
BRANCH   1  11
ATOM     11  N   UNL     1     -34.541   2.373  10.986  1.00  0.00    -0.322 N 
ATOM     12  C   UNL     1     -34.831   3.696  10.704  1.00  0.00    +0.255 C 
ATOM     13  O   UNL     1     -34.044   4.635  10.697  1.00  0.00    -0.269 OA
ATOM     14  H   UNL     1     -35.328   1.746  11.089  1.00  0.00    +0.170 HD
BRANCH  12  15
ATOM     15  C   UNL     1     -36.269   3.979  10.433  1.00  0.00    +0.042 A 
ATOM     16  C   UNL     1     -38.035   5.401   9.555  1.00  0.00    +0.032 A 
ATOM     17  C   UNL     1     -38.976   4.473  10.010  1.00  0.00    +0.025 A 
ATOM     18  C   UNL     1     -36.682   5.171   9.819  1.00  0.00    +0.039 A 
ATOM     19  C   UNL     1     -38.576   3.292  10.638  1.00  0.00    +0.003 A 
ATOM     20  C   UNL     1     -37.221   3.043  10.848  1.00  0.00    +0.014 A 
BRANCH  16  21
ATOM     21  N   UNL     1     -38.456   6.638   9.056  1.00  0.00    -0.399 N 
ATOM     22  H   UNL     1     -39.461   6.778   9.040  1.00  0.00    +0.156 HD
ATOM     23  H   UNL     1     -37.957   7.436   9.439  1.00  0.00    +0.156 HD
ENDBRANCH  16  21
ENDBRANCH  12  15
ENDBRANCH   1  11
BRANCH   5  24
ATOM     24  S   UNL     1     -29.139  -0.047  15.836  1.00  0.00    +0.294 S 
ATOM     25  O   UNL     1     -29.994  -1.029  16.466  1.00  0.00    -0.194 OA
ATOM     26  O   UNL     1     -27.706  -0.222  15.768  1.00  0.00    -0.194 OA
BRANCH  24  27
ATOM     27  O   UNL     1     -29.388   1.337  16.629  1.00  0.00    -0.282 OA
ATOM     28  H   UNL     1     -29.522   1.120  17.576  1.00  0.00    +0.234 HD
ENDBRANCH  24  27
ENDBRANCH   5  24
BRANCH   7  29
ATOM     29  O   UNL     1     -28.571  -0.299  10.820  1.00  0.00    -0.507 OA
ATOM     30  H   UNL     1     -28.726  -1.238  10.636  1.00  0.00    +0.293 HD
ENDBRANCH   7  29
TORSDOF 6
ENDMDL
MODEL 7
REMARK VINA RESULT:    -9.312      7.569     10.774
REMARK INTER + INTRA:         -11.969
REMARK INTER:                 -11.498
REMARK INTRA:                  -0.471
REMARK UNBOUND:                -0.207
REMARK SMILES Nc1cccc(C(=O)Nc2ccc3c(O)cc(S(=O)(=O)O)cc3c2)c1
REMARK SMILES IDX 10 1 24 2 23 3 22 4 17 5 16 6 14 7 13 8 12 9 11 10 9 11 7 12
REMARK SMILES IDX 8 13 6 15 2 16 3 17 25 18 4 19 5 20 1 21 18 24 19 25 20 26
REMARK SMILES IDX 21 27 15 29
REMARK H PARENT 9 14 1 22 1 23 21 28 15 30
ROOT
ATOM      1  C   UNL     1     -31.787   1.688  11.055  1.00  0.00    +0.042 A 
ATOM      2  C   UNL     1     -30.521   1.656  10.470  1.00  0.00    +0.035 A 
ATOM      3  C   UNL     1     -29.576   0.672  10.817  1.00  0.00    -0.011 A 
ATOM      4  C   UNL     1     -28.316   0.657  10.196  1.00  0.00    +0.032 A 
ATOM      5  C   UNL     1     -27.380  -0.324  10.524  1.00  0.00    +0.098 A 
ATOM      6  C   UNL     1     -27.663  -1.287  11.487  1.00  0.00    +0.069 A 
ATOM      7  C   UNL     1     -28.904  -1.267  12.117  1.00  0.00    +0.124 A 
ATOM      8  C   UNL     1     -29.894  -0.309  11.789  1.00  0.00    +0.024 A 
ATOM      9  C   UNL     1     -31.186  -0.273  12.357  1.00  0.00    +0.015 A 
ATOM     10  C   UNL     1     -32.115   0.710  11.994  1.00  0.00    +0.027 A 
ENDROOT
BRANCH   1  11
ATOM     11  N   UNL     1     -32.779   2.642  10.743  1.00  0.00    -0.322 N 
ATOM     12  C   UNL     1     -33.688   2.596   9.700  1.00  0.00    +0.255 C 
ATOM     13  O   UNL     1     -33.747   1.752   8.814  1.00  0.00    -0.269 OA
ATOM     14  H   UNL     1     -32.775   3.481  11.307  1.00  0.00    +0.170 HD
BRANCH  12  15
ATOM     15  C   UNL     1     -34.650   3.734   9.657  1.00  0.00    +0.042 A 
ATOM     16  C   UNL     1     -35.455   5.809   8.679  1.00  0.00    +0.032 A 
ATOM     17  C   UNL     1     -36.444   5.863   9.666  1.00  0.00    +0.025 A 
ATOM     18  C   UNL     1     -34.526   4.765   8.713  1.00  0.00    +0.039 A 
ATOM     19  C   UNL     1     -36.563   4.851  10.620  1.00  0.00    +0.003 A 
ATOM     20  C   UNL     1     -35.667   3.783  10.614  1.00  0.00    +0.014 A 
BRANCH  16  21
ATOM     21  N   UNL     1     -35.262   6.897   7.821  1.00  0.00    -0.399 N 
ATOM     22  H   UNL     1     -35.984   7.610   7.858  1.00  0.00    +0.156 HD
ATOM     23  H   UNL     1     -34.326   7.289   7.844  1.00  0.00    +0.156 HD
ENDBRANCH  16  21
ENDBRANCH  12  15
ENDBRANCH   1  11
BRANCH   5  24
ATOM     24  S   UNL     1     -25.795  -0.324   9.745  1.00  0.00    +0.294 S 
ATOM     25  O   UNL     1     -25.711   0.829   8.876  1.00  0.00    -0.194 OA
ATOM     26  O   UNL     1     -24.799  -0.581  10.761  1.00  0.00    -0.194 OA
BRANCH  24  27
ATOM     27  O   UNL     1     -25.796  -1.615   8.777  1.00  0.00    -0.282 OA
ATOM     28  H   UNL     1     -24.876  -1.952   8.724  1.00  0.00    +0.234 HD
ENDBRANCH  24  27
ENDBRANCH   5  24
BRANCH   7  29
ATOM     29  O   UNL     1     -29.086  -2.230  13.074  1.00  0.00    -0.507 OA
ATOM     30  H   UNL     1     -28.625  -1.960  13.883  1.00  0.00    +0.293 HD
ENDBRANCH   7  29
TORSDOF 6
ENDMDL
MODEL 8
REMARK VINA RESULT:    -8.281      8.189     10.198
REMARK INTER + INTRA:         -10.666
REMARK INTER:                 -10.285
REMARK INTRA:                  -0.381
REMARK UNBOUND:                -0.207
REMARK SMILES Nc1cccc(C(=O)Nc2ccc3c(O)cc(S(=O)(=O)O)cc3c2)c1
REMARK SMILES IDX 10 1 24 2 23 3 22 4 17 5 16 6 14 7 13 8 12 9 11 10 9 11 7 12
REMARK SMILES IDX 8 13 6 15 2 16 3 17 25 18 4 19 5 20 1 21 18 24 19 25 20 26
REMARK SMILES IDX 21 27 15 29
REMARK H PARENT 9 14 1 22 1 23 21 28 15 30
ROOT
ATOM      1  C   UNL     1     -33.156   2.476  10.395  1.00  0.00    +0.042 A 
ATOM      2  C   UNL     1     -34.178   1.566  10.668  1.00  0.00    +0.035 A 
ATOM      3  C   UNL     1     -35.517   1.982  10.795  1.00  0.00    -0.011 A 
ATOM      4  C   UNL     1     -36.525   1.038  11.052  1.00  0.00    +0.032 A 
ATOM      5  C   UNL     1     -37.856   1.440  11.163  1.00  0.00    +0.098 A 
ATOM      6  C   UNL     1     -38.208   2.781  11.049  1.00  0.00    +0.069 A 
ATOM      7  C   UNL     1     -37.211   3.722  10.810  1.00  0.00    +0.124 A 
ATOM      8  C   UNL     1     -35.853   3.352  10.657  1.00  0.00    +0.024 A 
ATOM      9  C   UNL     1     -34.810   4.255  10.362  1.00  0.00    +0.015 A 
ATOM     10  C   UNL     1     -33.484   3.822  10.234  1.00  0.00    +0.027 A 
ENDROOT
BRANCH   1  11
ATOM     11  N   UNL     1     -31.798   2.120  10.248  1.00  0.00    -0.322 N 
ATOM     12  C   UNL     1     -31.016   1.409  11.142  1.00  0.00    +0.255 C 
ATOM     13  O   UNL     1     -31.342   1.024  12.258  1.00  0.00    -0.269 OA
ATOM     14  H   UNL     1     -31.335   2.486   9.428  1.00  0.00    +0.170 HD
BRANCH  12  15
ATOM     15  C   UNL     1     -29.623   1.146  10.683  1.00  0.00    +0.042 A 
ATOM     16  C   UNL     1     -27.375   1.902  10.145  1.00  0.00    +0.032 A 
ATOM     17  C   UNL     1     -27.052   0.597   9.765  1.00  0.00    +0.025 A 
ATOM     18  C   UNL     1     -28.683   2.180  10.555  1.00  0.00    +0.039 A 
ATOM     19  C   UNL     1     -27.986  -0.435   9.872  1.00  0.00    +0.003 A 
ATOM     20  C   UNL     1     -29.272  -0.162  10.335  1.00  0.00    +0.014 A 
BRANCH  16  21
ATOM     21  N   UNL     1     -26.477   2.946   9.900  1.00  0.00    -0.399 N 
ATOM     22  H   UNL     1     -25.663   2.695   9.349  1.00  0.00    +0.156 HD
ATOM     23  H   UNL     1     -26.911   3.808   9.583  1.00  0.00    +0.156 HD
ENDBRANCH  16  21
ENDBRANCH  12  15
ENDBRANCH   1  11
BRANCH   5  24
ATOM     24  S   UNL     1     -39.111   0.245  11.500  1.00  0.00    +0.294 S 
ATOM     25  O   UNL     1     -38.939  -0.231  12.856  1.00  0.00    -0.194 OA
ATOM     26  O   UNL     1     -40.372   0.781  11.040  1.00  0.00    -0.194 OA
BRANCH  24  27
ATOM     27  O   UNL     1     -38.776  -1.007  10.540  1.00  0.00    -0.282 OA
ATOM     28  H   UNL     1     -37.837  -0.932  10.265  1.00  0.00    +0.234 HD
ENDBRANCH  24  27
ENDBRANCH   5  24
BRANCH   7  29
ATOM     29  O   UNL     1     -37.642   5.021  10.744  1.00  0.00    -0.507 OA
ATOM     30  H   UNL     1     -38.482   5.049  10.261  1.00  0.00    +0.293 HD
ENDBRANCH   7  29
TORSDOF 6
ENDMDL
