REMARK SMILES CCOc1ccccc1O
REMARK SMILES IDX 4 1 9 2 8 3 7 4 6 5 5 6 3 7 2 8 1 9 10 10
REMARK H PARENT 10 11
ROOT
ATOM      1  C   UNL     1      -0.333   0.130  -0.022  1.00  0.00    +0.160 A 
ATOM      2  C   UNL     1      -1.321   1.059  -0.369  1.00  0.00    +0.157 A 
ATOM      3  C   UNL     1      -2.662   0.841  -0.075  1.00  0.00    +0.050 A 
ATOM      4  C   UNL     1      -3.034  -0.330   0.581  1.00  0.00    +0.004 A 
ATOM      5  C   UNL     1      -2.062  -1.268   0.934  1.00  0.00    +0.004 A 
ATOM      6  C   UNL     1      -0.713  -1.041   0.635  1.00  0.00    +0.050 A 
ENDROOT
BRANCH   1   7
ATOM      7  O   UNL     1       0.944   0.483  -0.378  1.00  0.00    -0.490 OA
BRANCH   7   8
ATOM      8  C   UNL     1       1.982  -0.437  -0.042  1.00  0.00    +0.226 C 
ATOM      9  C   UNL     1       3.297   0.148  -0.523  1.00  0.00    +0.049 C 
ENDBRANCH   7   8
ENDBRANCH   1   7
BRANCH   2  10
ATOM     10  O   UNL     1      -0.981   2.217  -1.014  1.00  0.00    -0.504 OA
ATOM     11  H   UNL     1      -0.011   2.167  -1.119  1.00  0.00    +0.293 HD
ENDBRANCH   2  10
TORSDOF 3
