MODEL 1
REMARK VINA RESULT:    -5.746      0.000      0.000
REMARK INTER + INTRA:         -10.011
REMARK INTER:                  -9.105
REMARK INTRA:                  -0.907
REMARK UNBOUND:                -0.907
REMARK SMILES CCSC(SCC)[C@@H](O)[C@@H](O)[C@H](O)[C@@H](C)O
REMARK SMILES IDX 8 1 4 2 3 3 2 4 1 5 5 6 6 7 7 8 9 9 10 11 11 12 12 14 13 15
REMARK SMILES IDX 14 17 15 18 16 19
REMARK H PARENT 9 10 11 13 13 16 16 20
ROOT
ATOM      1  C   UNL     1     -23.989   3.126  10.302  1.00  0.00    +0.168 C 
ENDROOT
BRANCH   1   2
ATOM      2  C   UNL     1     -25.277   3.965  10.538  1.00  0.00    +0.135 C 
BRANCH   2   3
ATOM      3  S   UNL     1     -26.556   3.637   9.226  1.00  0.00    -0.145 SA
BRANCH   3   4
ATOM      4  C   UNL     1     -26.705   5.279   8.442  1.00  0.00    +0.067 C 
ATOM      5  C   UNL     1     -25.385   5.645   7.781  1.00  0.00    +0.015 C 
ENDBRANCH   3   4
ENDBRANCH   2   3
BRANCH   2   6
ATOM      6  S   UNL     1     -26.045   3.737  12.189  1.00  0.00    -0.145 SA
BRANCH   6   7
ATOM      7  C   UNL     1     -27.405   2.601  11.763  1.00  0.00    +0.067 C 
ATOM      8  C   UNL     1     -28.056   2.006  13.000  1.00  0.00    +0.015 C 
ENDBRANCH   6   7
ENDBRANCH   2   6
ENDBRANCH   1   2
BRANCH   1   9
ATOM      9  O   UNL     1     -23.197   3.095  11.508  1.00  0.00    -0.388 OA
ATOM     10  H   UNL     1     -22.501   3.772  11.393  1.00  0.00    +0.211 HD
ENDBRANCH   1   9
BRANCH   1  11
ATOM     11  C   UNL     1     -24.233   1.673   9.816  1.00  0.00    +0.176 C 
BRANCH  11  12
ATOM     12  O   UNL     1     -23.137   1.281   8.970  1.00  0.00    -0.388 OA
ATOM     13  H   UNL     1     -23.527   0.780   8.219  1.00  0.00    +0.211 HD
ENDBRANCH  11  12
BRANCH  11  14
ATOM     14  C   UNL     1     -24.497   0.599  10.912  1.00  0.00    +0.174 C 
BRANCH  14  15
ATOM     15  O   UNL     1     -23.315   0.362  11.687  1.00  0.00    -0.388 OA
ATOM     16  H   UNL     1     -23.303  -0.588  11.911  1.00  0.00    +0.211 HD
ENDBRANCH  14  15
BRANCH  14  17
ATOM     17  C   UNL     1     -25.113  -0.745  10.433  1.00  0.00    +0.142 C 
ATOM     18  C   UNL     1     -26.444  -1.023  11.134  1.00  0.00    +0.041 C 
BRANCH  17  19
ATOM     19  O   UNL     1     -25.334  -0.737   9.021  1.00  0.00    -0.391 OA
ATOM     20  H   UNL     1     -25.517  -1.657   8.754  1.00  0.00    +0.211 HD
ENDBRANCH  17  19
ENDBRANCH  14  17
ENDBRANCH  11  14
ENDBRANCH   1  11
TORSDOF 12
ENDMDL
MODEL 2
REMARK VINA RESULT:    -5.413      2.522      4.397
REMARK INTER + INTRA:          -9.485
REMARK INTER:                  -8.852
REMARK INTRA:                  -0.633
REMARK UNBOUND:                -0.907
REMARK SMILES CCSC(SCC)[C@@H](O)[C@@H](O)[C@H](O)[C@@H](C)O
REMARK SMILES IDX 8 1 4 2 3 3 2 4 1 5 5 6 6 7 7 8 9 9 10 11 11 12 12 14 13 15
REMARK SMILES IDX 14 17 15 18 16 19
REMARK H PARENT 9 10 11 13 13 16 16 20
ROOT
ATOM      1  C   UNL     1     -27.228   0.677  10.548  1.00  0.00    +0.168 C 
ENDROOT
BRANCH   1   2
ATOM      2  C   UNL     1     -28.168   1.712  11.229  1.00  0.00    +0.135 C 
BRANCH   2   3
ATOM      3  S   UNL     1     -29.926   1.106  11.285  1.00  0.00    -0.145 SA
BRANCH   3   4
ATOM      4  C   UNL     1     -29.745  -0.602  10.667  1.00  0.00    +0.067 C 
ATOM      5  C   UNL     1     -30.792  -0.866   9.597  1.00  0.00    +0.015 C 
ENDBRANCH   3   4
ENDBRANCH   2   3
BRANCH   2   6
ATOM      6  S   UNL     1     -27.656   2.210  12.920  1.00  0.00    -0.145 SA
BRANCH   6   7
ATOM      7  C   UNL     1     -28.307   0.809  13.885  1.00  0.00    +0.067 C 
ATOM      8  C   UNL     1     -29.217   1.270  15.012  1.00  0.00    +0.015 C 
ENDBRANCH   6   7
ENDBRANCH   2   6
ENDBRANCH   1   2
BRANCH   1   9
ATOM      9  O   UNL     1     -27.173   0.926   9.128  1.00  0.00    -0.388 OA
ATOM     10  H   UNL     1     -26.225   1.019   8.905  1.00  0.00    +0.211 HD
ENDBRANCH   1   9
BRANCH   1  11
ATOM     11  C   UNL     1     -25.785   0.631  11.114  1.00  0.00    +0.176 C 
BRANCH  11  12
ATOM     12  O   UNL     1     -25.399  -0.746  11.277  1.00  0.00    -0.388 OA
ATOM     13  H   UNL     1     -24.943  -0.810  12.146  1.00  0.00    +0.211 HD
ENDBRANCH  11  12
BRANCH  11  14
ATOM     14  C   UNL     1     -24.696   1.420  10.330  1.00  0.00    +0.174 C 
BRANCH  14  15
ATOM     15  O   UNL     1     -24.394   0.775   9.086  1.00  0.00    -0.388 OA
ATOM     16  H   UNL     1     -24.823   1.294   8.380  1.00  0.00    +0.211 HD
ENDBRANCH  14  15
BRANCH  14  17
ATOM     17  C   UNL     1     -23.389   1.753  11.102  1.00  0.00    +0.142 C 
ATOM     18  C   UNL     1     -22.163   1.193  10.380  1.00  0.00    +0.041 C 
BRANCH  17  19
ATOM     19  O   UNL     1     -23.224   3.165  11.254  1.00  0.00    -0.391 OA
ATOM     20  H   UNL     1     -24.055   3.584  10.964  1.00  0.00    +0.211 HD
ENDBRANCH  17  19
ENDBRANCH  14  17
ENDBRANCH  11  14
ENDBRANCH   1  11
TORSDOF 12
ENDMDL
MODEL 3
REMARK VINA RESULT:    -5.382      3.196      5.397
REMARK INTER + INTRA:          -9.435
REMARK INTER:                  -8.674
REMARK INTRA:                  -0.761
REMARK UNBOUND:                -0.907
REMARK SMILES CCSC(SCC)[C@@H](O)[C@@H](O)[C@H](O)[C@@H](C)O
REMARK SMILES IDX 8 1 4 2 3 3 2 4 1 5 5 6 6 7 7 8 9 9 10 11 11 12 12 14 13 15
REMARK SMILES IDX 14 17 15 18 16 19
REMARK H PARENT 9 10 11 13 13 16 16 20
ROOT
ATOM      1  C   UNL     1     -26.805   1.878   9.803  1.00  0.00    +0.168 C 
ENDROOT
BRANCH   1   2
ATOM      2  C   UNL     1     -27.972   1.449  10.738  1.00  0.00    +0.135 C 
BRANCH   2   3
ATOM      3  S   UNL     1     -28.342  -0.368  10.579  1.00  0.00    -0.145 SA
BRANCH   3   4
ATOM      4  C   UNL     1     -30.064  -0.340   9.974  1.00  0.00    +0.067 C 
ATOM      5  C   UNL     1     -30.912  -1.277  10.820  1.00  0.00    +0.015 C 
ENDBRANCH   3   4
ENDBRANCH   2   3
BRANCH   2   6
ATOM      6  S   UNL     1     -27.719   1.853  12.510  1.00  0.00    -0.145 SA
BRANCH   6   7
ATOM      7  C   UNL     1     -28.547   0.430  13.291  1.00  0.00    +0.067 C 
ATOM      8  C   UNL     1     -29.787   0.849  14.064  1.00  0.00    +0.015 C 
ENDBRANCH   6   7
ENDBRANCH   2   6
ENDBRANCH   1   2
BRANCH   1   9
ATOM      9  O   UNL     1     -26.614   0.888   8.771  1.00  0.00    -0.388 OA
ATOM     10  H   UNL     1     -25.908   1.234   8.191  1.00  0.00    +0.211 HD
ENDBRANCH   1   9
BRANCH   1  11
ATOM     11  C   UNL     1     -26.972   3.273   9.147  1.00  0.00    +0.176 C 
BRANCH  11  12
ATOM     12  O   UNL     1     -28.323   3.722   9.356  1.00  0.00    -0.388 OA
ATOM     13  H   UNL     1     -28.767   3.032   9.899  1.00  0.00    +0.211 HD
ENDBRANCH  11  12
BRANCH  11  14
ATOM     14  C   UNL     1     -25.954   4.374   9.567  1.00  0.00    +0.174 C 
BRANCH  14  15
ATOM     15  O   UNL     1     -26.012   4.611  10.979  1.00  0.00    -0.388 OA
ATOM     16  H   UNL     1     -25.682   3.806  11.420  1.00  0.00    +0.211 HD
ENDBRANCH  14  15
BRANCH  14  17
ATOM     17  C   UNL     1     -26.022   5.717   8.786  1.00  0.00    +0.142 C 
ATOM     18  C   UNL     1     -25.724   5.507   7.300  1.00  0.00    +0.041 C 
BRANCH  17  19
ATOM     19  O   UNL     1     -27.310   6.323   8.912  1.00  0.00    -0.391 OA
ATOM     20  H   UNL     1     -27.173   7.216   9.277  1.00  0.00    +0.211 HD
ENDBRANCH  17  19
ENDBRANCH  14  17
ENDBRANCH  11  14
ENDBRANCH   1  11
TORSDOF 12
ENDMDL
MODEL 4
REMARK VINA RESULT:    -5.345      2.719      4.208
REMARK INTER + INTRA:          -9.377
REMARK INTER:                  -8.498
REMARK INTRA:                  -0.879
REMARK UNBOUND:                -0.907
REMARK SMILES CCSC(SCC)[C@@H](O)[C@@H](O)[C@H](O)[C@@H](C)O
REMARK SMILES IDX 8 1 4 2 3 3 2 4 1 5 5 6 6 7 7 8 9 9 10 11 11 12 12 14 13 15
REMARK SMILES IDX 14 17 15 18 16 19
REMARK H PARENT 9 10 11 13 13 16 16 20
ROOT
ATOM      1  C   UNL     1     -27.480   2.490  10.521  1.00  0.00    +0.168 C 
ENDROOT
BRANCH   1   2
ATOM      2  C   UNL     1     -28.377   1.659  11.482  1.00  0.00    +0.135 C 
BRANCH   2   3
ATOM      3  S   UNL     1     -30.046   1.317  10.735  1.00  0.00    -0.145 SA
BRANCH   3   4
ATOM      4  C   UNL     1     -29.783  -0.329   9.989  1.00  0.00    +0.067 C 
ATOM      5  C   UNL     1     -31.116  -1.052   9.877  1.00  0.00    +0.015 C 
ENDBRANCH   3   4
ENDBRANCH   2   3
BRANCH   2   6
ATOM      6  S   UNL     1     -27.637   0.074  12.037  1.00  0.00    -0.145 SA
BRANCH   6   7
ATOM      7  C   UNL     1     -28.180   0.051  13.776  1.00  0.00    +0.067 C 
ATOM      8  C   UNL     1     -28.746   1.393  14.211  1.00  0.00    +0.015 C 
ENDBRANCH   6   7
ENDBRANCH   2   6
ENDBRANCH   1   2
BRANCH   1   9
ATOM      9  O   UNL     1     -27.106   3.733  11.152  1.00  0.00    -0.388 OA
ATOM     10  H   UNL     1     -26.468   3.499  11.855  1.00  0.00    +0.211 HD
ENDBRANCH   1   9
BRANCH   1  11
ATOM     11  C   UNL     1     -26.202   1.764  10.027  1.00  0.00    +0.176 C 
BRANCH  11  12
ATOM     12  O   UNL     1     -26.411   1.337   8.669  1.00  0.00    -0.388 OA
ATOM     13  H   UNL     1     -26.539   0.362   8.697  1.00  0.00    +0.211 HD
ENDBRANCH  11  12
BRANCH  11  14
ATOM     14  C   UNL     1     -24.857   2.538  10.161  1.00  0.00    +0.174 C 
BRANCH  14  15
ATOM     15  O   UNL     1     -24.778   3.595   9.196  1.00  0.00    -0.388 OA
ATOM     16  H   UNL     1     -23.877   3.966   9.247  1.00  0.00    +0.211 HD
ENDBRANCH  14  15
BRANCH  14  17
ATOM     17  C   UNL     1     -23.559   1.683  10.139  1.00  0.00    +0.142 C 
ATOM     18  C   UNL     1     -23.655   0.508  11.114  1.00  0.00    +0.041 C 
BRANCH  17  19
ATOM     19  O   UNL     1     -23.301   1.169   8.830  1.00  0.00    -0.391 OA
ATOM     20  H   UNL     1     -22.822   0.327   8.941  1.00  0.00    +0.211 HD
ENDBRANCH  17  19
ENDBRANCH  14  17
ENDBRANCH  11  14
ENDBRANCH   1  11
TORSDOF 12
ENDMDL
MODEL 5
REMARK VINA RESULT:    -5.316      2.805      4.740
REMARK INTER + INTRA:          -9.331
REMARK INTER:                  -8.459
REMARK INTRA:                  -0.872
REMARK UNBOUND:                -0.907
REMARK SMILES CCSC(SCC)[C@@H](O)[C@@H](O)[C@H](O)[C@@H](C)O
REMARK SMILES IDX 8 1 4 2 3 3 2 4 1 5 5 6 6 7 7 8 9 9 10 11 11 12 12 14 13 15
REMARK SMILES IDX 14 17 15 18 16 19
REMARK H PARENT 9 10 11 13 13 16 16 20
ROOT
ATOM      1  C   UNL     1     -26.968   1.287  10.720  1.00  0.00    +0.168 C 
ENDROOT
BRANCH   1   2
ATOM      2  C   UNL     1     -27.431   0.382  11.896  1.00  0.00    +0.135 C 
BRANCH   2   3
ATOM      3  S   UNL     1     -28.286   1.368  13.223  1.00  0.00    -0.145 SA
BRANCH   3   4
ATOM      4  C   UNL     1     -29.447   0.135  13.905  1.00  0.00    +0.067 C 
ATOM      5  C   UNL     1     -30.863   0.686  13.842  1.00  0.00    +0.015 C 
ENDBRANCH   3   4
ENDBRANCH   2   3
BRANCH   2   6
ATOM      6  S   UNL     1     -28.513  -1.017  11.404  1.00  0.00    -0.145 SA
BRANCH   6   7
ATOM      7  C   UNL     1     -29.386  -0.272   9.989  1.00  0.00    +0.067 C 
ATOM      8  C   UNL     1     -30.781  -0.849   9.815  1.00  0.00    +0.015 C 
ENDBRANCH   6   7
ENDBRANCH   2   6
ENDBRANCH   1   2
BRANCH   1   9
ATOM      9  O   UNL     1     -27.007   2.672  11.123  1.00  0.00    -0.388 OA
ATOM     10  H   UNL     1     -27.311   3.174  10.340  1.00  0.00    +0.211 HD
ENDBRANCH   1   9
BRANCH   1  11
ATOM     11  C   UNL     1     -25.561   0.959  10.156  1.00  0.00    +0.176 C 
BRANCH  11  12
ATOM     12  O   UNL     1     -25.694   0.600   8.769  1.00  0.00    -0.388 OA
ATOM     13  H   UNL     1     -26.529   1.011   8.450  1.00  0.00    +0.211 HD
ENDBRANCH  11  12
BRANCH  11  14
ATOM     14  C   UNL     1     -24.459   2.044  10.341  1.00  0.00    +0.174 C 
BRANCH  14  15
ATOM     15  O   UNL     1     -24.719   3.183   9.512  1.00  0.00    -0.388 OA
ATOM     16  H   UNL     1     -23.859   3.495   9.172  1.00  0.00    +0.211 HD
ENDBRANCH  14  15
BRANCH  14  17
ATOM     17  C   UNL     1     -22.987   1.573  10.174  1.00  0.00    +0.142 C 
ATOM     18  C   UNL     1     -22.683   0.378  11.079  1.00  0.00    +0.041 C 
BRANCH  17  19
ATOM     19  O   UNL     1     -22.715   1.200   8.821  1.00  0.00    -0.391 OA
ATOM     20  H   UNL     1     -23.207   1.817   8.248  1.00  0.00    +0.211 HD
ENDBRANCH  17  19
ENDBRANCH  14  17
ENDBRANCH  11  14
ENDBRANCH   1  11
TORSDOF 12
ENDMDL
MODEL 6
REMARK VINA RESULT:    -5.281      1.986      4.039
REMARK INTER + INTRA:          -9.275
REMARK INTER:                  -8.738
REMARK INTRA:                  -0.537
REMARK UNBOUND:                -0.907
REMARK SMILES CCSC(SCC)[C@@H](O)[C@@H](O)[C@H](O)[C@@H](C)O
REMARK SMILES IDX 8 1 4 2 3 3 2 4 1 5 5 6 6 7 7 8 9 9 10 11 11 12 12 14 13 15
REMARK SMILES IDX 14 17 15 18 16 19
REMARK H PARENT 9 10 11 13 13 16 16 20
ROOT
ATOM      1  C   UNL     1     -25.558   0.653  11.246  1.00  0.00    +0.168 C 
ENDROOT
BRANCH   1   2
ATOM      2  C   UNL     1     -26.649   1.746  11.059  1.00  0.00    +0.135 C 
BRANCH   2   3
ATOM      3  S   UNL     1     -28.319   1.148  11.621  1.00  0.00    -0.145 SA
BRANCH   3   4
ATOM      4  C   UNL     1     -28.372   1.770  13.337  1.00  0.00    +0.067 C 
ATOM      5  C   UNL     1     -29.483   1.061  14.096  1.00  0.00    +0.015 C 
ENDBRANCH   3   4
ENDBRANCH   2   3
BRANCH   2   6
ATOM      6  S   UNL     1     -26.279   3.343  11.884  1.00  0.00    -0.145 SA
BRANCH   6   7
ATOM      7  C   UNL     1     -24.920   3.947  10.832  1.00  0.00    +0.067 C 
ATOM      8  C   UNL     1     -25.435   4.651   9.588  1.00  0.00    +0.015 C 
ENDBRANCH   6   7
ENDBRANCH   2   6
ENDBRANCH   1   2
BRANCH   1   9
ATOM      9  O   UNL     1     -26.140  -0.521  11.851  1.00  0.00    -0.388 OA
ATOM     10  H   UNL     1     -25.487  -0.840  12.505  1.00  0.00    +0.211 HD
ENDBRANCH   1   9
BRANCH   1  11
ATOM     11  C   UNL     1     -24.813   0.243   9.949  1.00  0.00    +0.176 C 
BRANCH  11  12
ATOM     12  O   UNL     1     -25.305   1.048   8.862  1.00  0.00    -0.388 OA
ATOM     13  H   UNL     1     -24.745   0.839   8.081  1.00  0.00    +0.211 HD
ENDBRANCH  11  12
BRANCH  11  14
ATOM     14  C   UNL     1     -23.257   0.267   9.994  1.00  0.00    +0.174 C 
BRANCH  14  15
ATOM     15  O   UNL     1     -22.728   1.042   8.910  1.00  0.00    -0.388 OA
ATOM     16  H   UNL     1     -23.072   1.950   9.010  1.00  0.00    +0.211 HD
ENDBRANCH  14  15
BRANCH  14  17
ATOM     17  C   UNL     1     -22.543  -1.111  10.077  1.00  0.00    +0.142 C 
ATOM     18  C   UNL     1     -21.535  -1.142  11.227  1.00  0.00    +0.041 C 
BRANCH  17  19
ATOM     19  O   UNL     1     -23.485  -2.169  10.267  1.00  0.00    -0.391 OA
ATOM     20  H   UNL     1     -23.799  -2.436   9.383  1.00  0.00    +0.211 HD
ENDBRANCH  17  19
ENDBRANCH  14  17
ENDBRANCH  11  14
ENDBRANCH   1  11
TORSDOF 12
ENDMDL
MODEL 7
REMARK VINA RESULT:    -5.279      1.714      2.587
REMARK INTER + INTRA:          -9.271
REMARK INTER:                  -8.540
REMARK INTRA:                  -0.731
REMARK UNBOUND:                -0.907
REMARK SMILES CCSC(SCC)[C@@H](O)[C@@H](O)[C@H](O)[C@@H](C)O
REMARK SMILES IDX 8 1 4 2 3 3 2 4 1 5 5 6 6 7 7 8 9 9 10 11 11 12 12 14 13 15
REMARK SMILES IDX 14 17 15 18 16 19
REMARK H PARENT 9 10 11 13 13 16 16 20
ROOT
ATOM      1  C   UNL     1     -25.386   1.280  11.091  1.00  0.00    +0.168 C 
ENDROOT
BRANCH   1   2
ATOM      2  C   UNL     1     -26.217   2.083  12.131  1.00  0.00    +0.135 C 
BRANCH   2   3
ATOM      3  S   UNL     1     -25.797   3.895  12.091  1.00  0.00    -0.145 SA
BRANCH   3   4
ATOM      4  C   UNL     1     -24.845   4.016  10.537  1.00  0.00    +0.067 C 
ATOM      5  C   UNL     1     -25.703   4.677   9.470  1.00  0.00    +0.015 C 
ENDBRANCH   3   4
ENDBRANCH   2   3
BRANCH   2   6
ATOM      6  S   UNL     1     -28.036   1.890  11.967  1.00  0.00    -0.145 SA
BRANCH   6   7
ATOM      7  C   UNL     1     -28.427   1.112  13.568  1.00  0.00    +0.067 C 
ATOM      8  C   UNL     1     -29.903   0.771  13.687  1.00  0.00    +0.015 C 
ENDBRANCH   6   7
ENDBRANCH   2   6
ENDBRANCH   1   2
BRANCH   1   9
ATOM      9  O   UNL     1     -24.457   0.411  11.773  1.00  0.00    -0.388 OA
ATOM     10  H   UNL     1     -23.567   0.776  11.600  1.00  0.00    +0.211 HD
ENDBRANCH   1   9
BRANCH   1  11
ATOM     11  C   UNL     1     -26.223   0.445  10.087  1.00  0.00    +0.176 C 
BRANCH  11  12
ATOM     12  O   UNL     1     -25.718   0.679   8.761  1.00  0.00    -0.388 OA
ATOM     13  H   UNL     1     -25.925  -0.125   8.234  1.00  0.00    +0.211 HD
ENDBRANCH  11  12
BRANCH  11  14
ATOM     14  C   UNL     1     -26.343  -1.082  10.370  1.00  0.00    +0.174 C 
BRANCH  14  15
ATOM     15  O   UNL     1     -26.404  -1.336  11.779  1.00  0.00    -0.388 OA
ATOM     16  H   UNL     1     -27.278  -1.032  12.089  1.00  0.00    +0.211 HD
ENDBRANCH  14  15
BRANCH  14  17
ATOM     17  C   UNL     1     -25.282  -1.998   9.697  1.00  0.00    +0.142 C 
ATOM     18  C   UNL     1     -25.334  -3.415  10.268  1.00  0.00    +0.041 C 
BRANCH  17  19
ATOM     19  O   UNL     1     -25.482  -2.067   8.284  1.00  0.00    -0.391 OA
ATOM     20  H   UNL     1     -26.235  -2.668   8.130  1.00  0.00    +0.211 HD
ENDBRANCH  17  19
ENDBRANCH  14  17
ENDBRANCH  11  14
ENDBRANCH   1  11
TORSDOF 12
ENDMDL
MODEL 8
REMARK VINA RESULT:    -5.275      2.289      4.186
REMARK INTER + INTRA:          -9.265
REMARK INTER:                  -8.564
REMARK INTRA:                  -0.701
REMARK UNBOUND:                -0.907
REMARK SMILES CCSC(SCC)[C@@H](O)[C@@H](O)[C@H](O)[C@@H](C)O
REMARK SMILES IDX 8 1 4 2 3 3 2 4 1 5 5 6 6 7 7 8 9 9 10 11 11 12 12 14 13 15
REMARK SMILES IDX 14 17 15 18 16 19
REMARK H PARENT 9 10 11 13 13 16 16 20
ROOT
ATOM      1  C   UNL     1     -26.870   0.598  10.063  1.00  0.00    +0.168 C 
ENDROOT
BRANCH   1   2
ATOM      2  C   UNL     1     -27.708   1.730  10.721  1.00  0.00    +0.135 C 
BRANCH   2   3
ATOM      3  S   UNL     1     -29.213   1.055  11.581  1.00  0.00    -0.145 SA
BRANCH   3   4
ATOM      4  C   UNL     1     -30.384   0.881  10.190  1.00  0.00    +0.067 C 
ATOM      5  C   UNL     1     -30.491  -0.585   9.801  1.00  0.00    +0.015 C 
ENDBRANCH   3   4
ENDBRANCH   2   3
BRANCH   2   6
ATOM      6  S   UNL     1     -26.775   2.788  11.895  1.00  0.00    -0.145 SA
BRANCH   6   7
ATOM      7  C   UNL     1     -26.009   3.966  10.736  1.00  0.00    +0.067 C 
ATOM      8  C   UNL     1     -24.500   3.795  10.668  1.00  0.00    +0.015 C 
ENDBRANCH   6   7
ENDBRANCH   2   6
ENDBRANCH   1   2
BRANCH   1   9
ATOM      9  O   UNL     1     -26.346   1.050   8.796  1.00  0.00    -0.388 OA
ATOM     10  H   UNL     1     -26.350   0.269   8.207  1.00  0.00    +0.211 HD
ENDBRANCH   1   9
BRANCH   1  11
ATOM     11  C   UNL     1     -25.705   0.057  10.932  1.00  0.00    +0.176 C 
BRANCH  11  12
ATOM     12  O   UNL     1     -26.234  -0.902  11.864  1.00  0.00    -0.388 OA
ATOM     13  H   UNL     1     -26.336  -1.748  11.371  1.00  0.00    +0.211 HD
ENDBRANCH  11  12
BRANCH  11  14
ATOM     14  C   UNL     1     -24.476  -0.528  10.176  1.00  0.00    +0.174 C 
BRANCH  14  15
ATOM     15  O   UNL     1     -24.524  -1.961  10.155  1.00  0.00    -0.388 OA
ATOM     16  H   UNL     1     -25.373  -2.215   9.746  1.00  0.00    +0.211 HD
ENDBRANCH  14  15
BRANCH  14  17
ATOM     17  C   UNL     1     -23.076  -0.038  10.641  1.00  0.00    +0.142 C 
ATOM     18  C   UNL     1     -22.433   0.871   9.593  1.00  0.00    +0.041 C 
BRANCH  17  19
ATOM     19  O   UNL     1     -23.164   0.680  11.875  1.00  0.00    -0.391 OA
ATOM     20  H   UNL     1     -22.669   1.512  11.759  1.00  0.00    +0.211 HD
ENDBRANCH  17  19
ENDBRANCH  14  17
ENDBRANCH  11  14
ENDBRANCH   1  11
TORSDOF 12
ENDMDL
MODEL 9
REMARK VINA RESULT:    -5.267      1.986      2.993
REMARK INTER + INTRA:          -9.253
REMARK INTER:                  -8.402
REMARK INTRA:                  -0.851
REMARK UNBOUND:                -0.907
REMARK SMILES CCSC(SCC)[C@@H](O)[C@@H](O)[C@H](O)[C@@H](C)O
REMARK SMILES IDX 8 1 4 2 3 3 2 4 1 5 5 6 6 7 7 8 9 9 10 11 11 12 12 14 13 15
REMARK SMILES IDX 14 17 15 18 16 19
REMARK H PARENT 9 10 11 13 13 16 16 20
ROOT
ATOM      1  C   UNL     1     -26.565   0.554   9.914  1.00  0.00    +0.168 C 
ENDROOT
BRANCH   1   2
ATOM      2  C   UNL     1     -26.540   1.491  11.155  1.00  0.00    +0.135 C 
BRANCH   2   3
ATOM      3  S   UNL     1     -26.904   3.255  10.687  1.00  0.00    -0.145 SA
BRANCH   3   4
ATOM      4  C   UNL     1     -25.233   3.991  10.703  1.00  0.00    +0.067 C 
ATOM      5  C   UNL     1     -25.056   4.868   9.474  1.00  0.00    +0.015 C 
ENDBRANCH   3   4
ENDBRANCH   2   3
BRANCH   2   6
ATOM      6  S   UNL     1     -27.668   0.990  12.514  1.00  0.00    -0.145 SA
BRANCH   6   7
ATOM      7  C   UNL     1     -29.282   1.235  11.705  1.00  0.00    +0.067 C 
ATOM      8  C   UNL     1     -30.435   0.817  12.603  1.00  0.00    +0.015 C 
ENDBRANCH   6   7
ENDBRANCH   2   6
ENDBRANCH   1   2
BRANCH   1   9
ATOM      9  O   UNL     1     -26.508   1.340   8.705  1.00  0.00    -0.388 OA
ATOM     10  H   UNL     1     -26.068   0.778   8.037  1.00  0.00    +0.211 HD
ENDBRANCH   1   9
BRANCH   1  11
ATOM     11  C   UNL     1     -25.444  -0.517   9.880  1.00  0.00    +0.176 C 
BRANCH  11  12
ATOM     12  O   UNL     1     -25.566  -1.270   8.660  1.00  0.00    -0.388 OA
ATOM     13  H   UNL     1     -25.605  -2.219   8.917  1.00  0.00    +0.211 HD
ENDBRANCH  11  12
BRANCH  11  14
ATOM     14  C   UNL     1     -23.984  -0.014  10.074  1.00  0.00    +0.174 C 
BRANCH  14  15
ATOM     15  O   UNL     1     -23.672   1.022   9.134  1.00  0.00    -0.388 OA
ATOM     16  H   UNL     1     -24.168   1.817   9.405  1.00  0.00    +0.211 HD
ENDBRANCH  14  15
BRANCH  14  17
ATOM     17  C   UNL     1     -22.870  -1.099  10.080  1.00  0.00    +0.142 C 
ATOM     18  C   UNL     1     -21.814  -0.801  11.145  1.00  0.00    +0.041 C 
BRANCH  17  19
ATOM     19  O   UNL     1     -23.415  -2.396  10.328  1.00  0.00    -0.391 OA
ATOM     20  H   UNL     1     -23.106  -2.980   9.610  1.00  0.00    +0.211 HD
ENDBRANCH  17  19
ENDBRANCH  14  17
ENDBRANCH  11  14
ENDBRANCH   1  11
TORSDOF 12
ENDMDL
