MODEL 1
REMARK VINA RESULT:    -5.339      0.000      0.000
REMARK INTER + INTRA:          -7.495
REMARK INTER:                  -6.900
REMARK INTRA:                  -0.595
REMARK UNBOUND:                -0.595
REMARK SMILES CCCCCC(=O)C(C)(C)C
REMARK SMILES IDX 4 1 3 2 2 3 1 4 5 5 6 6 7 7 8 8 9 9 10 10 11 11
REMARK H PARENT
ROOT
ATOM      1  C   UNL     1     -30.310   8.759   7.329  1.00  0.00    +0.008 C 
ENDROOT
BRANCH   1   2
ATOM      2  C   UNL     1     -31.386   9.679   6.737  1.00  0.00    +0.000 C 
BRANCH   2   3
ATOM      3  C   UNL     1     -30.951  11.118   6.451  1.00  0.00    -0.003 C 
ATOM      4  C   UNL     1     -30.519  11.882   7.693  1.00  0.00    +0.004 C 
ENDBRANCH   2   3
ENDBRANCH   1   2
BRANCH   1   5
ATOM      5  C   UNL     1     -29.060   8.591   6.466  1.00  0.00    +0.076 C 
BRANCH   5   6
ATOM      6  C   UNL     1     -27.861   9.396   6.960  1.00  0.00    +0.138 C 
ATOM      7  O   UNL     1     -27.688   9.593   8.165  1.00  0.00    -0.299 OA
BRANCH   6   8
ATOM      8  C   UNL     1     -26.888   9.966   5.907  1.00  0.00    +0.021 C 
ATOM      9  C   UNL     1     -27.309  11.402   5.545  1.00  0.00    +0.019 C 
ATOM     10  C   UNL     1     -26.915   9.115   4.631  1.00  0.00    +0.019 C 
ATOM     11  C   UNL     1     -25.473  10.000   6.497  1.00  0.00    +0.019 C 
ENDBRANCH   6   8
ENDBRANCH   5   6
ENDBRANCH   1   5
TORSDOF 5
ENDMDL
MODEL 2
REMARK VINA RESULT:    -5.284      1.479      2.133
REMARK INTER + INTRA:          -7.424
REMARK INTER:                  -6.790
REMARK INTRA:                  -0.634
REMARK UNBOUND:                -0.595
REMARK SMILES CCCCCC(=O)C(C)(C)C
REMARK SMILES IDX 4 1 3 2 2 3 1 4 5 5 6 6 7 7 8 8 9 9 10 10 11 11
REMARK H PARENT
ROOT
ATOM      1  C   UNL     1     -29.550  10.636   7.667  1.00  0.00    +0.008 C 
ENDROOT
BRANCH   1   2
ATOM      2  C   UNL     1     -29.845  11.977   6.983  1.00  0.00    +0.000 C 
BRANCH   2   3
ATOM      3  C   UNL     1     -29.318  12.128   5.554  1.00  0.00    -0.003 C 
ATOM      4  C   UNL     1     -28.002  12.887   5.467  1.00  0.00    +0.004 C 
ENDBRANCH   2   3
ENDBRANCH   1   2
BRANCH   1   5
ATOM      5  C   UNL     1     -29.111   9.515   6.726  1.00  0.00    +0.076 C 
BRANCH   5   6
ATOM      6  C   UNL     1     -27.935   8.698   7.253  1.00  0.00    +0.138 C 
ATOM      7  O   UNL     1     -28.024   8.078   8.316  1.00  0.00    -0.299 OA
BRANCH   6   8
ATOM      8  C   UNL     1     -26.633   8.686   6.425  1.00  0.00    +0.021 C 
ATOM      9  C   UNL     1     -26.974   8.833   4.931  1.00  0.00    +0.019 C 
ATOM     10  C   UNL     1     -25.877   7.366   6.625  1.00  0.00    +0.019 C 
ATOM     11  C   UNL     1     -25.758   9.872   6.850  1.00  0.00    +0.019 C 
ENDBRANCH   6   8
ENDBRANCH   5   6
ENDBRANCH   1   5
TORSDOF 5
ENDMDL
MODEL 3
REMARK VINA RESULT:    -5.238      1.122      2.380
REMARK INTER + INTRA:          -7.364
REMARK INTER:                  -7.005
REMARK INTRA:                  -0.359
REMARK UNBOUND:                -0.595
REMARK SMILES CCCCCC(=O)C(C)(C)C
REMARK SMILES IDX 4 1 3 2 2 3 1 4 5 5 6 6 7 7 8 8 9 9 10 10 11 11
REMARK H PARENT
ROOT
ATOM      1  C   UNL     1     -30.358  10.746   7.311  1.00  0.00    +0.008 C 
ENDROOT
BRANCH   1   2
ATOM      2  C   UNL     1     -31.377   9.892   6.545  1.00  0.00    +0.000 C 
BRANCH   2   3
ATOM      3  C   UNL     1     -31.081   8.392   6.485  1.00  0.00    -0.003 C 
ATOM      4  C   UNL     1     -32.030   7.619   5.583  1.00  0.00    +0.004 C 
ENDBRANCH   2   3
ENDBRANCH   1   2
BRANCH   1   5
ATOM      5  C   UNL     1     -29.091  11.094   6.529  1.00  0.00    +0.076 C 
BRANCH   5   6
ATOM      6  C   UNL     1     -27.903  10.194   6.856  1.00  0.00    +0.138 C 
ATOM      7  O   UNL     1     -27.852   9.582   7.926  1.00  0.00    -0.299 OA
BRANCH   6   8
ATOM      8  C   UNL     1     -26.767  10.090   5.817  1.00  0.00    +0.021 C 
ATOM      9  C   UNL     1     -25.436   9.808   6.540  1.00  0.00    +0.019 C 
ATOM     10  C   UNL     1     -26.627  11.402   5.036  1.00  0.00    +0.019 C 
ATOM     11  C   UNL     1     -27.065   8.927   4.862  1.00  0.00    +0.019 C 
ENDBRANCH   6   8
ENDBRANCH   5   6
ENDBRANCH   1   5
TORSDOF 5
ENDMDL
MODEL 4
REMARK VINA RESULT:    -5.121      1.633      4.393
REMARK INTER + INTRA:          -7.213
REMARK INTER:                  -6.965
REMARK INTRA:                  -0.248
REMARK UNBOUND:                -0.595
REMARK SMILES CCCCCC(=O)C(C)(C)C
REMARK SMILES IDX 4 1 3 2 2 3 1 4 5 5 6 6 7 7 8 8 9 9 10 10 11 11
REMARK H PARENT
ROOT
ATOM      1  C   UNL     1     -27.832   9.989   6.739  1.00  0.00    +0.008 C 
ENDROOT
BRANCH   1   2
ATOM      2  C   UNL     1     -27.378  10.566   5.393  1.00  0.00    +0.000 C 
BRANCH   2   3
ATOM      3  C   UNL     1     -26.987  12.046   5.397  1.00  0.00    -0.003 C 
ATOM      4  C   UNL     1     -28.166  12.989   5.211  1.00  0.00    +0.004 C 
ENDBRANCH   2   3
ENDBRANCH   1   2
BRANCH   1   5
ATOM      5  C   UNL     1     -29.345   9.851   6.905  1.00  0.00    +0.076 C 
BRANCH   5   6
ATOM      6  C   UNL     1     -29.790   8.452   7.321  1.00  0.00    +0.138 C 
ATOM      7  O   UNL     1     -28.969   7.621   7.717  1.00  0.00    -0.299 OA
BRANCH   6   8
ATOM      8  C   UNL     1     -31.291   8.109   7.214  1.00  0.00    +0.021 C 
ATOM      9  C   UNL     1     -31.634   7.762   5.754  1.00  0.00    +0.019 C 
ATOM     10  C   UNL     1     -32.150   9.304   7.645  1.00  0.00    +0.019 C 
ATOM     11  C   UNL     1     -31.591   6.890   8.095  1.00  0.00    +0.019 C 
ENDBRANCH   6   8
ENDBRANCH   5   6
ENDBRANCH   1   5
TORSDOF 5
ENDMDL
MODEL 5
REMARK VINA RESULT:    -5.045      2.054      4.671
REMARK INTER + INTRA:          -7.115
REMARK INTER:                  -6.613
REMARK INTRA:                  -0.501
REMARK UNBOUND:                -0.595
REMARK SMILES CCCCCC(=O)C(C)(C)C
REMARK SMILES IDX 4 1 3 2 2 3 1 4 5 5 6 6 7 7 8 8 9 9 10 10 11 11
REMARK H PARENT
ROOT
ATOM      1  C   UNL     1     -29.879  11.187   7.057  1.00  0.00    +0.008 C 
ENDROOT
BRANCH   1   2
ATOM      2  C   UNL     1     -28.599  10.358   6.892  1.00  0.00    +0.000 C 
BRANCH   2   3
ATOM      3  C   UNL     1     -27.638  10.823   5.797  1.00  0.00    -0.003 C 
ATOM      4  C   UNL     1     -27.806  12.287   5.418  1.00  0.00    +0.004 C 
ENDBRANCH   2   3
ENDBRANCH   1   2
BRANCH   1   5
ATOM      5  C   UNL     1     -31.128  10.577   6.421  1.00  0.00    +0.076 C 
BRANCH   5   6
ATOM      6  C   UNL     1     -31.880   9.621   7.343  1.00  0.00    +0.138 C 
ATOM      7  O   UNL     1     -32.456  10.039   8.350  1.00  0.00    -0.299 OA
BRANCH   6   8
ATOM      8  C   UNL     1     -31.880   8.120   6.984  1.00  0.00    +0.021 C 
ATOM      9  C   UNL     1     -30.770   7.404   7.774  1.00  0.00    +0.019 C 
ATOM     10  C   UNL     1     -31.616   7.924   5.486  1.00  0.00    +0.019 C 
ATOM     11  C   UNL     1     -33.234   7.512   7.372  1.00  0.00    +0.019 C 
ENDBRANCH   6   8
ENDBRANCH   5   6
ENDBRANCH   1   5
TORSDOF 5
ENDMDL
MODEL 6
REMARK VINA RESULT:    -5.016      1.486      2.517
REMARK INTER + INTRA:          -7.077
REMARK INTER:                  -6.545
REMARK INTRA:                  -0.533
REMARK UNBOUND:                -0.595
REMARK SMILES CCCCCC(=O)C(C)(C)C
REMARK SMILES IDX 4 1 3 2 2 3 1 4 5 5 6 6 7 7 8 8 9 9 10 10 11 11
REMARK H PARENT
ROOT
ATOM      1  C   UNL     1     -30.678  10.855   6.587  1.00  0.00    +0.008 C 
ENDROOT
BRANCH   1   2
ATOM      2  C   UNL     1     -31.707   9.939   7.261  1.00  0.00    +0.000 C 
BRANCH   2   3
ATOM      3  C   UNL     1     -31.412   8.439   7.193  1.00  0.00    -0.003 C 
ATOM      4  C   UNL     1     -31.758   7.809   5.853  1.00  0.00    +0.004 C 
ENDBRANCH   2   3
ENDBRANCH   1   2
BRANCH   1   5
ATOM      5  C   UNL     1     -29.302  10.878   7.252  1.00  0.00    +0.076 C 
BRANCH   5   6
ATOM      6  C   UNL     1     -28.142  10.782   6.264  1.00  0.00    +0.138 C 
ATOM      7  O   UNL     1     -27.948  11.670   5.431  1.00  0.00    -0.299 OA
BRANCH   6   8
ATOM      8  C   UNL     1     -27.237   9.534   6.331  1.00  0.00    +0.021 C 
ATOM      9  C   UNL     1     -25.799   9.963   6.677  1.00  0.00    +0.019 C 
ATOM     10  C   UNL     1     -27.217   8.807   4.981  1.00  0.00    +0.019 C 
ATOM     11  C   UNL     1     -27.751   8.599   7.434  1.00  0.00    +0.019 C 
ENDBRANCH   6   8
ENDBRANCH   5   6
ENDBRANCH   1   5
TORSDOF 5
ENDMDL
MODEL 7
REMARK VINA RESULT:    -5.008      7.376      9.960
REMARK INTER + INTRA:          -7.066
REMARK INTER:                  -6.791
REMARK INTRA:                  -0.276
REMARK UNBOUND:                -0.595
REMARK SMILES CCCCCC(=O)C(C)(C)C
REMARK SMILES IDX 4 1 3 2 2 3 1 4 5 5 6 6 7 7 8 8 9 9 10 10 11 11
REMARK H PARENT
ROOT
ATOM      1  C   UNL     1     -35.140   6.050   7.628  1.00  0.00    +0.008 C 
ENDROOT
BRANCH   1   2
ATOM      2  C   UNL     1     -34.185   5.408   6.614  1.00  0.00    +0.000 C 
BRANCH   2   3
ATOM      3  C   UNL     1     -33.959   6.193   5.319  1.00  0.00    -0.003 C 
ATOM      4  C   UNL     1     -32.632   6.936   5.280  1.00  0.00    +0.004 C 
ENDBRANCH   2   3
ENDBRANCH   1   2
BRANCH   1   5
ATOM      5  C   UNL     1     -35.208   5.347   8.983  1.00  0.00    +0.076 C 
BRANCH   5   6
ATOM      6  C   UNL     1     -36.552   4.680   9.261  1.00  0.00    +0.138 C 
ATOM      7  O   UNL     1     -36.899   3.676   8.634  1.00  0.00    -0.299 OA
BRANCH   6   8
ATOM      8  C   UNL     1     -37.465   5.310  10.334  1.00  0.00    +0.021 C 
ATOM      9  C   UNL     1     -36.608   6.119  11.324  1.00  0.00    +0.019 C 
ATOM     10  C   UNL     1     -38.213   4.222  11.113  1.00  0.00    +0.019 C 
ATOM     11  C   UNL     1     -38.460   6.259   9.652  1.00  0.00    +0.019 C 
ENDBRANCH   6   8
ENDBRANCH   5   6
ENDBRANCH   1   5
TORSDOF 5
ENDMDL
MODEL 8
REMARK VINA RESULT:    -4.876      6.786      8.071
REMARK INTER + INTRA:          -6.896
REMARK INTER:                  -6.655
REMARK INTRA:                  -0.241
REMARK UNBOUND:                -0.595
REMARK SMILES CCCCCC(=O)C(C)(C)C
REMARK SMILES IDX 4 1 3 2 2 3 1 4 5 5 6 6 7 7 8 8 9 9 10 10 11 11
REMARK H PARENT
ROOT
ATOM      1  C   UNL     1     -25.584   5.115   8.704  1.00  0.00    +0.008 C 
ENDROOT
BRANCH   1   2
ATOM      2  C   UNL     1     -26.219   6.201   7.827  1.00  0.00    +0.000 C 
BRANCH   2   3
ATOM      3  C   UNL     1     -25.339   6.752   6.703  1.00  0.00    -0.003 C 
ATOM      4  C   UNL     1     -24.728   8.109   7.016  1.00  0.00    +0.004 C 
ENDBRANCH   2   3
ENDBRANCH   1   2
BRANCH   1   5
ATOM      5  C   UNL     1     -26.572   4.124   9.320  1.00  0.00    +0.076 C 
BRANCH   5   6
ATOM      6  C   UNL     1     -25.949   2.776   9.670  1.00  0.00    +0.138 C 
ATOM      7  O   UNL     1     -25.966   1.844   8.862  1.00  0.00    -0.299 OA
BRANCH   6   8
ATOM      8  C   UNL     1     -25.315   2.613  11.068  1.00  0.00    +0.021 C 
ATOM      9  C   UNL     1     -25.611   1.200  11.603  1.00  0.00    +0.019 C 
ATOM     10  C   UNL     1     -25.900   3.637  12.049  1.00  0.00    +0.019 C 
ATOM     11  C   UNL     1     -23.795   2.790  10.953  1.00  0.00    +0.019 C 
ENDBRANCH   6   8
ENDBRANCH   5   6
ENDBRANCH   1   5
TORSDOF 5
ENDMDL
MODEL 9
REMARK VINA RESULT:    -4.792      8.257      9.310
REMARK INTER + INTRA:          -6.787
REMARK INTER:                  -6.008
REMARK INTRA:                  -0.779
REMARK UNBOUND:                -0.595
REMARK SMILES CCCCCC(=O)C(C)(C)C
REMARK SMILES IDX 4 1 3 2 2 3 1 4 5 5 6 6 7 7 8 8 9 9 10 10 11 11
REMARK H PARENT
ROOT
ATOM      1  C   UNL     1     -34.022   4.346  11.243  1.00  0.00    +0.008 C 
ENDROOT
BRANCH   1   2
ATOM      2  C   UNL     1     -34.940   5.481  11.714  1.00  0.00    +0.000 C 
BRANCH   2   3
ATOM      3  C   UNL     1     -36.411   5.361  11.310  1.00  0.00    -0.003 C 
ATOM      4  C   UNL     1     -37.003   6.653  10.769  1.00  0.00    +0.004 C 
ENDBRANCH   2   3
ENDBRANCH   1   2
BRANCH   1   5
ATOM      5  C   UNL     1     -33.432   4.531   9.845  1.00  0.00    +0.076 C 
BRANCH   5   6
ATOM      6  C   UNL     1     -33.978   3.546   8.815  1.00  0.00    +0.138 C 
ATOM      7  O   UNL     1     -33.571   2.383   8.779  1.00  0.00    -0.299 OA
BRANCH   6   8
ATOM      8  C   UNL     1     -35.037   4.057   7.816  1.00  0.00    +0.021 C 
ATOM      9  C   UNL     1     -34.698   3.545   6.404  1.00  0.00    +0.019 C 
ATOM     10  C   UNL     1     -35.056   5.590   7.786  1.00  0.00    +0.019 C 
ATOM     11  C   UNL     1     -36.413   3.513   8.221  1.00  0.00    +0.019 C 
ENDBRANCH   6   8
ENDBRANCH   5   6
ENDBRANCH   1   5
TORSDOF 5
ENDMDL
