REMARK SMILES O=C1N[C@H](CCCl)C(=O)N[C@H]1CCCl
REMARK SMILES IDX 11 1 10 2 8 3 9 4 4 5 3 6 2 7 1 8 12 11 13 12 14 13 5 14
REMARK SMILES IDX 6 15 7 16
REMARK H PARENT 10 9 3 10
ROOT
ATOM      1  C   UNL     1       1.351  -0.281  -0.631  1.00  0.00    +0.172 C 
ATOM      2  N   UNL     1       0.378   0.227  -1.601  1.00  0.00    -0.342 N 
ATOM      3  C   UNL     1      -0.699   0.977  -1.190  1.00  0.00    +0.243 C 
ATOM      4  O   UNL     1      -1.198   1.814  -1.936  1.00  0.00    -0.273 OA
ATOM      5  C   UNL     1      -1.375   0.493   0.104  1.00  0.00    +0.172 C 
ATOM      6  N   UNL     1      -0.412  -0.032   1.070  1.00  0.00    -0.342 N 
ATOM      7  C   UNL     1       0.663  -0.783   0.653  1.00  0.00    +0.243 C 
ATOM      8  O   UNL     1       1.152  -1.631   1.393  1.00  0.00    -0.273 OA
ATOM      9  H   UNL     1       0.748   0.532  -2.494  1.00  0.00    +0.164 HD
ATOM     10  H   UNL     1      -0.801  -0.370   1.946  1.00  0.00    +0.164 HD
ENDROOT
BRANCH   1  11
ATOM     11  C   UNL     1       2.363   0.821  -0.277  1.00  0.00    +0.051 C 
BRANCH  11  12
ATOM     12  C   UNL     1       3.599   0.317   0.464  1.00  0.00    +0.112 C 
ATOM     13 Cl   UNL     1       4.597  -0.732  -0.571  1.00  0.00    -0.127 Cl
ENDBRANCH  11  12
ENDBRANCH   1  11
BRANCH   5  14
ATOM     14  C   UNL     1      -2.440  -0.555  -0.264  1.00  0.00    +0.051 C 
BRANCH  14  15
ATOM     15  C   UNL     1      -3.616  -0.590   0.709  1.00  0.00    +0.112 C 
ATOM     16 Cl   UNL     1      -3.131  -1.093   2.343  1.00  0.00    -0.127 Cl
ENDBRANCH  14  15
ENDBRANCH   5  14
TORSDOF 4
