MODEL 1
REMARK VINA RESULT:    -6.951      0.000      0.000
REMARK INTER + INTRA:         -10.228
REMARK INTER:                  -9.795
REMARK INTRA:                  -0.433
REMARK UNBOUND:                -0.433
REMARK SMILES CCCCOc1ccc(NC[S](=O)=O)cn1
REMARK SMILES IDX 5 1 4 2 3 3 2 4 1 5 6 6 7 7 16 8 8 9 15 10 9 11 10 12 11 14
REMARK SMILES IDX 12 15 13 16 14 17
REMARK H PARENT 10 13
ROOT
ATOM      1  O   UNL     1     -25.521  10.801   5.714  1.00  0.00    -0.478 OA
ENDROOT
BRANCH   1   2
ATOM      2  C   UNL     1     -26.651  11.204   4.939  1.00  0.00    +0.231 C 
BRANCH   2   3
ATOM      3  C   UNL     1     -27.062  12.615   5.363  1.00  0.00    +0.041 C 
BRANCH   3   4
ATOM      4  C   UNL     1     -28.572  12.871   5.342  1.00  0.00    +0.000 C 
ATOM      5  C   UNL     1     -29.361  11.913   6.220  1.00  0.00    +0.004 C 
ENDBRANCH   3   4
ENDBRANCH   2   3
ENDBRANCH   1   2
BRANCH   1   6
ATOM      6  C   UNL     1     -25.648   9.525   6.229  1.00  0.00    +0.213 A 
ATOM      7  C   UNL     1     -26.940   9.084   6.457  1.00  0.00    +0.070 A 
ATOM      8  N   UNL     1     -24.552   8.779   6.463  1.00  0.00    -0.220 NA
ATOM      9  C   UNL     1     -27.119   7.803   6.974  1.00  0.00    +0.033 A 
ATOM     10  C   UNL     1     -24.770   7.537   6.974  1.00  0.00    +0.140 A 
ATOM     11  C   UNL     1     -26.020   6.998   7.286  1.00  0.00    +0.054 A 
BRANCH  11  12
ATOM     12  N   UNL     1     -26.239   5.684   7.716  1.00  0.00    -0.367 N 
ATOM     13  H   UNL     1     -27.200   5.580   8.062  1.00  0.00    +0.161 HD
BRANCH  12  14
ATOM     14  C   UNL     1     -25.403   5.158   8.804  1.00  0.00    +0.285 C 
BRANCH  14  15
ATOM     15  S   UNL     1     -26.109   3.590   9.551  1.00  0.00    +0.207 S 
ATOM     16  O   UNL     1     -26.449   4.061  10.946  1.00  0.00    -0.188 OA
ATOM     17  O   UNL     1     -24.906   2.676   9.456  1.00  0.00    -0.188 OA
ENDBRANCH  14  15
ENDBRANCH  12  14
ENDBRANCH  11  12
ENDBRANCH   1   6
TORSDOF 7
ENDMDL
MODEL 2
REMARK VINA RESULT:    -6.687      1.801      2.404
REMARK INTER + INTRA:          -9.857
REMARK INTER:                  -9.507
REMARK INTRA:                  -0.350
REMARK UNBOUND:                -0.433
REMARK SMILES CCCCOc1ccc(NC[S](=O)=O)cn1
REMARK SMILES IDX 5 1 4 2 3 3 2 4 1 5 6 6 7 7 16 8 8 9 15 10 9 11 10 12 11 14
REMARK SMILES IDX 12 15 13 16 14 17
REMARK H PARENT 10 13
ROOT
ATOM      1  O   UNL     1     -27.477   9.737   6.571  1.00  0.00    -0.478 OA
ENDROOT
BRANCH   1   2
ATOM      2  C   UNL     1     -28.884   9.884   6.769  1.00  0.00    +0.231 C 
BRANCH   2   3
ATOM      3  C   UNL     1     -29.263  11.349   6.550  1.00  0.00    +0.041 C 
BRANCH   3   4
ATOM      4  C   UNL     1     -30.425  11.843   7.417  1.00  0.00    +0.000 C 
ATOM      5  C   UNL     1     -31.462  10.769   7.710  1.00  0.00    +0.004 C 
ENDBRANCH   3   4
ENDBRANCH   2   3
ENDBRANCH   1   2
BRANCH   1   6
ATOM      6  C   UNL     1     -26.998   8.512   6.994  1.00  0.00    +0.213 A 
ATOM      7  C   UNL     1     -25.739   8.159   6.543  1.00  0.00    +0.070 A 
ATOM      8  N   UNL     1     -27.740   7.745   7.817  1.00  0.00    -0.220 NA
ATOM      9  C   UNL     1     -25.212   6.933   6.945  1.00  0.00    +0.033 A 
ATOM     10  C   UNL     1     -27.193   6.554   8.180  1.00  0.00    +0.140 A 
ATOM     11  C   UNL     1     -25.953   6.069   7.756  1.00  0.00    +0.054 A 
BRANCH  11  12
ATOM     12  N   UNL     1     -25.357   4.889   8.216  1.00  0.00    -0.367 N 
ATOM     13  H   UNL     1     -25.874   4.073   7.865  1.00  0.00    +0.161 HD
BRANCH  12  14
ATOM     14  C   UNL     1     -25.273   4.669   9.666  1.00  0.00    +0.285 C 
BRANCH  14  15
ATOM     15  S   UNL     1     -26.194   3.129  10.208  1.00  0.00    +0.207 S 
ATOM     16  O   UNL     1     -25.823   2.166   9.103  1.00  0.00    -0.188 OA
ATOM     17  O   UNL     1     -27.620   3.636  10.167  1.00  0.00    -0.188 OA
ENDBRANCH  14  15
ENDBRANCH  12  14
ENDBRANCH  11  12
ENDBRANCH   1   6
TORSDOF 7
ENDMDL
MODEL 3
REMARK VINA RESULT:    -6.629      1.931      2.617
REMARK INTER + INTRA:          -9.775
REMARK INTER:                  -9.480
REMARK INTRA:                  -0.295
REMARK UNBOUND:                -0.433
REMARK SMILES CCCCOc1ccc(NC[S](=O)=O)cn1
REMARK SMILES IDX 5 1 4 2 3 3 2 4 1 5 6 6 7 7 16 8 8 9 15 10 9 11 10 12 11 14
REMARK SMILES IDX 12 15 13 16 14 17
REMARK H PARENT 10 13
ROOT
ATOM      1  O   UNL     1     -27.244   9.036   6.756  1.00  0.00    -0.478 OA
ENDROOT
BRANCH   1   2
ATOM      2  C   UNL     1     -28.388   9.550   7.439  1.00  0.00    +0.231 C 
BRANCH   2   3
ATOM      3  C   UNL     1     -29.004  10.667   6.596  1.00  0.00    +0.041 C 
BRANCH   3   4
ATOM      4  C   UNL     1     -27.999  11.453   5.749  1.00  0.00    +0.000 C 
ATOM      5  C   UNL     1     -28.494  12.834   5.346  1.00  0.00    +0.004 C 
ENDBRANCH   3   4
ENDBRANCH   2   3
ENDBRANCH   1   2
BRANCH   1   6
ATOM      6  C   UNL     1     -26.812   7.825   7.265  1.00  0.00    +0.213 A 
ATOM      7  C   UNL     1     -25.519   7.453   6.943  1.00  0.00    +0.070 A 
ATOM      8  N   UNL     1     -27.630   7.090   8.043  1.00  0.00    -0.220 NA
ATOM      9  C   UNL     1     -25.039   6.240   7.434  1.00  0.00    +0.033 A 
ATOM     10  C   UNL     1     -27.125   5.911   8.496  1.00  0.00    +0.140 A 
ATOM     11  C   UNL     1     -25.855   5.408   8.204  1.00  0.00    +0.054 A 
BRANCH  11  12
ATOM     12  N   UNL     1     -25.311   4.243   8.758  1.00  0.00    -0.367 N 
ATOM     13  H   UNL     1     -24.930   3.643   8.016  1.00  0.00    +0.161 HD
BRANCH  12  14
ATOM     14  C   UNL     1     -26.196   3.355   9.524  1.00  0.00    +0.285 C 
BRANCH  14  15
ATOM     15  S   UNL     1     -25.432   1.669   9.818  1.00  0.00    +0.207 S 
ATOM     16  O   UNL     1     -23.975   1.957   9.534  1.00  0.00    -0.188 OA
ATOM     17  O   UNL     1     -26.145   0.858   8.757  1.00  0.00    -0.188 OA
ENDBRANCH  14  15
ENDBRANCH  12  14
ENDBRANCH  11  12
ENDBRANCH   1   6
TORSDOF 7
ENDMDL
MODEL 4
REMARK VINA RESULT:    -6.410      3.018      7.665
REMARK INTER + INTRA:          -9.466
REMARK INTER:                  -9.118
REMARK INTRA:                  -0.348
REMARK UNBOUND:                -0.433
REMARK SMILES CCCCOc1ccc(NC[S](=O)=O)cn1
REMARK SMILES IDX 5 1 4 2 3 3 2 4 1 5 6 6 7 7 16 8 8 9 15 10 9 11 10 12 11 14
REMARK SMILES IDX 12 15 13 16 14 17
REMARK H PARENT 10 13
ROOT
ATOM      1  O   UNL     1     -25.708   4.259   8.630  1.00  0.00    -0.478 OA
ENDROOT
BRANCH   1   2
ATOM      2  C   UNL     1     -25.779   4.146  10.052  1.00  0.00    +0.231 C 
BRANCH   2   3
ATOM      3  C   UNL     1     -25.098   2.845  10.478  1.00  0.00    +0.041 C 
BRANCH   3   4
ATOM      4  C   UNL     1     -23.703   3.025  11.085  1.00  0.00    +0.000 C 
ATOM      5  C   UNL     1     -22.751   1.882  10.768  1.00  0.00    +0.004 C 
ENDBRANCH   3   4
ENDBRANCH   2   3
ENDBRANCH   1   2
BRANCH   1   6
ATOM      6  C   UNL     1     -26.249   5.439   8.156  1.00  0.00    +0.213 A 
ATOM      7  C   UNL     1     -25.510   6.107   7.196  1.00  0.00    +0.070 A 
ATOM      8  N   UNL     1     -27.441   5.867   8.614  1.00  0.00    -0.220 NA
ATOM      9  C   UNL     1     -26.015   7.302   6.686  1.00  0.00    +0.033 A 
ATOM     10  C   UNL     1     -27.896   7.040   8.095  1.00  0.00    +0.140 A 
ATOM     11  C   UNL     1     -27.221   7.826   7.157  1.00  0.00    +0.054 A 
BRANCH  11  12
ATOM     12  N   UNL     1     -27.745   8.977   6.557  1.00  0.00    -0.367 N 
ATOM     13  H   UNL     1     -28.746   8.852   6.364  1.00  0.00    +0.161 HD
BRANCH  12  14
ATOM     14  C   UNL     1     -27.180   9.413   5.272  1.00  0.00    +0.285 C 
BRANCH  14  15
ATOM     15  S   UNL     1     -26.292  11.058   5.406  1.00  0.00    +0.207 S 
ATOM     16  O   UNL     1     -26.166  11.439   3.949  1.00  0.00    -0.188 OA
ATOM     17  O   UNL     1     -25.003  10.620   6.069  1.00  0.00    -0.188 OA
ENDBRANCH  14  15
ENDBRANCH  12  14
ENDBRANCH  11  12
ENDBRANCH   1   6
TORSDOF 7
ENDMDL
MODEL 5
REMARK VINA RESULT:    -6.023      3.595      7.444
REMARK INTER + INTRA:          -8.921
REMARK INTER:                  -8.583
REMARK INTRA:                  -0.339
REMARK UNBOUND:                -0.433
REMARK SMILES CCCCOc1ccc(NC[S](=O)=O)cn1
REMARK SMILES IDX 5 1 4 2 3 3 2 4 1 5 6 6 7 7 16 8 8 9 15 10 9 11 10 12 11 14
REMARK SMILES IDX 12 15 13 16 14 17
REMARK H PARENT 10 13
ROOT
ATOM      1  O   UNL     1     -25.741   4.497   8.587  1.00  0.00    -0.478 OA
ENDROOT
BRANCH   1   2
ATOM      2  C   UNL     1     -24.827   4.718   9.662  1.00  0.00    +0.231 C 
BRANCH   2   3
ATOM      3  C   UNL     1     -25.018   3.616  10.706  1.00  0.00    +0.041 C 
BRANCH   3   4
ATOM      4  C   UNL     1     -26.077   3.923  11.769  1.00  0.00    +0.000 C 
ATOM      5  C   UNL     1     -26.932   2.721  12.138  1.00  0.00    +0.004 C 
ENDBRANCH   3   4
ENDBRANCH   2   3
ENDBRANCH   1   2
BRANCH   1   6
ATOM      6  C   UNL     1     -26.420   5.642   8.213  1.00  0.00    +0.213 A 
ATOM      7  C   UNL     1     -25.787   6.452   7.288  1.00  0.00    +0.070 A 
ATOM      8  N   UNL     1     -27.636   5.904   8.729  1.00  0.00    -0.220 NA
ATOM      9  C   UNL     1     -26.433   7.617   6.878  1.00  0.00    +0.033 A 
ATOM     10  C   UNL     1     -28.229   7.053   8.308  1.00  0.00    +0.140 A 
ATOM     11  C   UNL     1     -27.673   7.972   7.414  1.00  0.00    +0.054 A 
BRANCH  11  12
ATOM     12  N   UNL     1     -28.336   9.099   6.912  1.00  0.00    -0.367 N 
ATOM     13  H   UNL     1     -28.034   9.940   7.419  1.00  0.00    +0.161 HD
BRANCH  12  14
ATOM     14  C   UNL     1     -29.803   9.137   6.986  1.00  0.00    +0.285 C 
BRANCH  14  15
ATOM     15  S   UNL     1     -30.490  10.844   6.632  1.00  0.00    +0.207 S 
ATOM     16  O   UNL     1     -29.222  11.610   6.331  1.00  0.00    -0.188 OA
ATOM     17  O   UNL     1     -31.131  11.163   7.966  1.00  0.00    -0.188 OA
ENDBRANCH  14  15
ENDBRANCH  12  14
ENDBRANCH  11  12
ENDBRANCH   1   6
TORSDOF 7
ENDMDL
MODEL 6
REMARK VINA RESULT:    -5.924      5.949      6.616
REMARK INTER + INTRA:          -8.781
REMARK INTER:                  -8.267
REMARK INTRA:                  -0.513
REMARK UNBOUND:                -0.433
REMARK SMILES CCCCOc1ccc(NC[S](=O)=O)cn1
REMARK SMILES IDX 5 1 4 2 3 3 2 4 1 5 6 6 7 7 16 8 8 9 15 10 9 11 10 12 11 14
REMARK SMILES IDX 12 15 13 16 14 17
REMARK H PARENT 10 13
ROOT
ATOM      1  O   UNL     1     -29.497   8.516   7.662  1.00  0.00    -0.478 OA
ENDROOT
BRANCH   1   2
ATOM      2  C   UNL     1     -28.770   8.965   6.517  1.00  0.00    +0.231 C 
BRANCH   2   3
ATOM      3  C   UNL     1     -28.326  10.410   6.751  1.00  0.00    +0.041 C 
BRANCH   3   4
ATOM      4  C   UNL     1     -29.335  11.468   6.292  1.00  0.00    +0.000 C 
ATOM      5  C   UNL     1     -30.352  11.838   7.359  1.00  0.00    +0.004 C 
ENDBRANCH   3   4
ENDBRANCH   2   3
ENDBRANCH   1   2
BRANCH   1   6
ATOM      6  C   UNL     1     -30.665   7.854   7.333  1.00  0.00    +0.213 A 
ATOM      7  C   UNL     1     -31.059   6.847   8.195  1.00  0.00    +0.070 A 
ATOM      8  N   UNL     1     -31.360   8.216   6.238  1.00  0.00    -0.220 NA
ATOM      9  C   UNL     1     -32.233   6.151   7.906  1.00  0.00    +0.033 A 
ATOM     10  C   UNL     1     -32.495   7.509   5.988  1.00  0.00    +0.140 A 
ATOM     11  C   UNL     1     -32.971   6.444   6.757  1.00  0.00    +0.054 A 
BRANCH  11  12
ATOM     12  N   UNL     1     -34.192   5.791   6.547  1.00  0.00    -0.367 N 
ATOM     13  H   UNL     1     -34.892   6.456   6.196  1.00  0.00    +0.161 HD
BRANCH  12  14
ATOM     14  C   UNL     1     -34.845   5.147   7.694  1.00  0.00    +0.285 C 
BRANCH  14  15
ATOM     15  S   UNL     1     -34.989   3.290   7.480  1.00  0.00    +0.207 S 
ATOM     16  O   UNL     1     -33.910   2.805   8.422  1.00  0.00    -0.188 OA
ATOM     17  O   UNL     1     -34.663   3.159   6.008  1.00  0.00    -0.188 OA
ENDBRANCH  14  15
ENDBRANCH  12  14
ENDBRANCH  11  12
ENDBRANCH   1   6
TORSDOF 7
ENDMDL
MODEL 7
REMARK VINA RESULT:    -5.771      8.081      8.986
REMARK INTER + INTRA:          -8.566
REMARK INTER:                  -8.197
REMARK INTRA:                  -0.369
REMARK UNBOUND:                -0.433
REMARK SMILES CCCCOc1ccc(NC[S](=O)=O)cn1
REMARK SMILES IDX 5 1 4 2 3 3 2 4 1 5 6 6 7 7 16 8 8 9 15 10 9 11 10 12 11 14
REMARK SMILES IDX 12 15 13 16 14 17
REMARK H PARENT 10 13
ROOT
ATOM      1  O   UNL     1     -31.564   7.103   7.342  1.00  0.00    -0.478 OA
ENDROOT
BRANCH   1   2
ATOM      2  C   UNL     1     -31.953   8.340   6.744  1.00  0.00    +0.231 C 
BRANCH   2   3
ATOM      3  C   UNL     1     -30.921   9.409   7.110  1.00  0.00    +0.041 C 
BRANCH   3   4
ATOM      4  C   UNL     1     -31.507  10.657   7.777  1.00  0.00    +0.000 C 
ATOM      5  C   UNL     1     -30.584  11.865   7.721  1.00  0.00    +0.004 C 
ENDBRANCH   3   4
ENDBRANCH   2   3
ENDBRANCH   1   2
BRANCH   1   6
ATOM      6  C   UNL     1     -32.630   6.404   7.875  1.00  0.00    +0.213 A 
ATOM      7  C   UNL     1     -33.853   6.588   7.255  1.00  0.00    +0.070 A 
ATOM      8  N   UNL     1     -32.441   5.583   8.926  1.00  0.00    -0.220 NA
ATOM      9  C   UNL     1     -34.958   5.903   7.756  1.00  0.00    +0.033 A 
ATOM     10  C   UNL     1     -33.546   4.938   9.389  1.00  0.00    +0.140 A 
ATOM     11  C   UNL     1     -34.838   5.076   8.876  1.00  0.00    +0.054 A 
BRANCH  11  12
ATOM     12  N   UNL     1     -35.947   4.331   9.295  1.00  0.00    -0.367 N 
ATOM     13  H   UNL     1     -36.016   3.463   8.751  1.00  0.00    +0.161 HD
BRANCH  12  14
ATOM     14  C   UNL     1     -37.280   4.939   9.180  1.00  0.00    +0.285 C 
BRANCH  14  15
ATOM     15  S   UNL     1     -37.996   5.405  10.848  1.00  0.00    +0.207 S 
ATOM     16  O   UNL     1     -39.241   6.155  10.430  1.00  0.00    -0.188 OA
ATOM     17  O   UNL     1     -36.879   6.270  11.393  1.00  0.00    -0.188 OA
ENDBRANCH  14  15
ENDBRANCH  12  14
ENDBRANCH  11  12
ENDBRANCH   1   6
TORSDOF 7
ENDMDL
MODEL 8
REMARK VINA RESULT:    -5.746      5.868      9.740
REMARK INTER + INTRA:          -8.530
REMARK INTER:                  -8.093
REMARK INTRA:                  -0.437
REMARK UNBOUND:                -0.433
REMARK SMILES CCCCOc1ccc(NC[S](=O)=O)cn1
REMARK SMILES IDX 5 1 4 2 3 3 2 4 1 5 6 6 7 7 16 8 8 9 15 10 9 11 10 12 11 14
REMARK SMILES IDX 12 15 13 16 14 17
REMARK H PARENT 10 13
ROOT
ATOM      1  O   UNL     1     -28.427   0.389  12.788  1.00  0.00    -0.478 OA
ENDROOT
BRANCH   1   2
ATOM      2  C   UNL     1     -29.751   0.924  12.807  1.00  0.00    +0.231 C 
BRANCH   2   3
ATOM      3  C   UNL     1     -30.594   0.116  13.795  1.00  0.00    +0.041 C 
BRANCH   3   4
ATOM      4  C   UNL     1     -29.904  -0.175  15.131  1.00  0.00    +0.000 C 
ATOM      5  C   UNL     1     -29.571   1.077  15.927  1.00  0.00    +0.004 C 
ENDBRANCH   3   4
ENDBRANCH   2   3
ENDBRANCH   1   2
BRANCH   1   6
ATOM      6  C   UNL     1     -27.586   1.063  11.922  1.00  0.00    +0.213 A 
ATOM      7  C   UNL     1     -27.435   2.419  12.149  1.00  0.00    +0.070 A 
ATOM      8  N   UNL     1     -26.954   0.395  10.938  1.00  0.00    -0.220 NA
ATOM      9  C   UNL     1     -26.596   3.142  11.303  1.00  0.00    +0.033 A 
ATOM     10  C   UNL     1     -26.150   1.137  10.131  1.00  0.00    +0.140 A 
ATOM     11  C   UNL     1     -25.951   2.517  10.233  1.00  0.00    +0.054 A 
BRANCH  11  12
ATOM     12  N   UNL     1     -25.044   3.252   9.460  1.00  0.00    -0.367 N 
ATOM     13  H   UNL     1     -24.083   2.949   9.661  1.00  0.00    +0.161 HD
BRANCH  12  14
ATOM     14  C   UNL     1     -25.007   4.711   9.627  1.00  0.00    +0.285 C 
BRANCH  14  15
ATOM     15  S   UNL     1     -25.829   5.611   8.203  1.00  0.00    +0.207 S 
ATOM     16  O   UNL     1     -24.949   6.835   8.087  1.00  0.00    -0.188 OA
ATOM     17  O   UNL     1     -27.201   5.860   8.793  1.00  0.00    -0.188 OA
ENDBRANCH  14  15
ENDBRANCH  12  14
ENDBRANCH  11  12
ENDBRANCH   1   6
TORSDOF 7
ENDMDL
MODEL 9
REMARK VINA RESULT:    -5.739      4.009      6.648
REMARK INTER + INTRA:          -8.520
REMARK INTER:                  -8.059
REMARK INTRA:                  -0.461
REMARK UNBOUND:                -0.433
REMARK SMILES CCCCOc1ccc(NC[S](=O)=O)cn1
REMARK SMILES IDX 5 1 4 2 3 3 2 4 1 5 6 6 7 7 16 8 8 9 15 10 9 11 10 12 11 14
REMARK SMILES IDX 12 15 13 16 14 17
REMARK H PARENT 10 13
ROOT
ATOM      1  O   UNL     1     -24.940   4.201   8.812  1.00  0.00    -0.478 OA
ENDROOT
BRANCH   1   2
ATOM      2  C   UNL     1     -25.713   5.399   8.727  1.00  0.00    +0.231 C 
BRANCH   2   3
ATOM      3  C   UNL     1     -25.767   5.849   7.266  1.00  0.00    +0.041 C 
BRANCH   3   4
ATOM      4  C   UNL     1     -25.219   7.257   7.013  1.00  0.00    +0.000 C 
ATOM      5  C   UNL     1     -26.293   8.266   6.637  1.00  0.00    +0.004 C 
ENDBRANCH   3   4
ENDBRANCH   2   3
ENDBRANCH   1   2
BRANCH   1   6
ATOM      6  C   UNL     1     -25.386   3.342   9.798  1.00  0.00    +0.213 A 
ATOM      7  C   UNL     1     -25.736   3.924  11.003  1.00  0.00    +0.070 A 
ATOM      8  N   UNL     1     -25.479   2.021   9.551  1.00  0.00    -0.220 NA
ATOM      9  C   UNL     1     -26.193   3.097  12.028  1.00  0.00    +0.033 A 
ATOM     10  C   UNL     1     -25.923   1.249  10.579  1.00  0.00    +0.140 A 
ATOM     11  C   UNL     1     -26.264   1.713  11.852  1.00  0.00    +0.054 A 
BRANCH  11  12
ATOM     12  N   UNL     1     -26.815   0.924  12.869  1.00  0.00    -0.367 N 
ATOM     13  H   UNL     1     -26.877  -0.054  12.562  1.00  0.00    +0.161 HD
BRANCH  12  14
ATOM     14  C   UNL     1     -28.169   1.242  13.343  1.00  0.00    +0.285 C 
BRANCH  14  15
ATOM     15  S   UNL     1     -29.498   0.484  12.261  1.00  0.00    +0.207 S 
ATOM     16  O   UNL     1     -28.793  -0.756  11.761  1.00  0.00    -0.188 OA
ATOM     17  O   UNL     1     -29.674   1.582  11.234  1.00  0.00    -0.188 OA
ENDBRANCH  14  15
ENDBRANCH  12  14
ENDBRANCH  11  12
ENDBRANCH   1   6
TORSDOF 7
ENDMDL
