REMARK SMILES C[C@H](c1ccccc1)c1ccccc1O
REMARK SMILES IDX 9 1 14 2 13 3 12 4 11 5 10 6 2 7 1 8 3 9 4 10 8 11 5 12 7 13
REMARK SMILES IDX 6 14 15 15
REMARK H PARENT 15 16
ROOT
ATOM      1  C   UNL     1      -1.125  -0.120  -0.409  1.00  0.00    +0.001 A 
ATOM      2  C   UNL     1      -1.917  -0.084  -1.565  1.00  0.00    +0.119 A 
ATOM      3  C   UNL     1      -2.978   0.816  -1.690  1.00  0.00    +0.046 A 
ATOM      4  C   UNL     1      -3.267   1.695  -0.648  1.00  0.00    +0.004 A 
ATOM      5  C   UNL     1      -2.500   1.673   0.513  1.00  0.00    +0.001 A 
ATOM      6  C   UNL     1      -1.441   0.771   0.634  1.00  0.00    +0.008 A 
ENDROOT
BRANCH   1   7
ATOM      7  C   UNL     1       0.025  -1.113  -0.263  1.00  0.00    +0.050 C 
ATOM      8  C   UNL     1      -0.424  -2.289   0.617  1.00  0.00    +0.018 C 
BRANCH   7   9
ATOM      9  C   UNL     1       1.335  -0.448   0.162  1.00  0.00    -0.041 A 
ATOM     10  C   UNL     1       1.895  -0.594   1.440  1.00  0.00    +0.004 A 
ATOM     11  C   UNL     1       2.011   0.362  -0.769  1.00  0.00    +0.004 A 
ATOM     12  C   UNL     1       3.093   0.044   1.774  1.00  0.00    +0.000 A 
ATOM     13  C   UNL     1       3.207   1.000  -0.435  1.00  0.00    +0.000 A 
ATOM     14  C   UNL     1       3.749   0.839   0.837  1.00  0.00    +0.000 A 
ENDBRANCH   7   9
ENDBRANCH   1   7
BRANCH   2  15
ATOM     15  O   UNL     1      -1.646  -0.953  -2.586  1.00  0.00    -0.508 OA
ATOM     16  H   UNL     1      -2.283  -0.799  -3.303  1.00  0.00    +0.293 HD
ENDBRANCH   2  15
TORSDOF 3
