MODEL 1
REMARK VINA RESULT:    -5.553      0.000      0.000
REMARK INTER + INTRA:          -7.628
REMARK INTER:                  -7.176
REMARK INTRA:                  -0.452
REMARK UNBOUND:                -0.452
REMARK SMILES O=C(O)[C@@H](O)[C@@H](O)C(=O)O
REMARK SMILES IDX 4 1 5 2 6 4 7 5 8 7 9 8 10 9 2 11 1 12 3 13
REMARK H PARENT 5 3 7 6 10 10 3 14
ROOT
ATOM      1  C   UNL     1     -33.921  -1.459  -0.212  1.00  0.00    +0.264 C 
ENDROOT
BRANCH   1   2
ATOM      2  O   UNL     1     -33.060  -0.380   0.164  1.00  0.00    -0.379 OA
ATOM      3  H   UNL     1     -33.405  -0.062   1.022  1.00  0.00    +0.211 HD
ENDBRANCH   1   2
BRANCH   1   4
ATOM      4  C   UNL     1     -33.368  -2.139  -1.466  1.00  0.00    +0.264 C 
BRANCH   4   5
ATOM      5  O   UNL     1     -34.380  -3.046  -1.951  1.00  0.00    -0.379 OA
ATOM      6  H   UNL     1     -35.131  -2.475  -2.219  1.00  0.00    +0.211 HD
ENDBRANCH   4   5
BRANCH   4   7
ATOM      7  C   UNL     1     -32.970  -1.125  -2.540  1.00  0.00    +0.335 C 
ATOM      8  O   UNL     1     -31.933  -0.494  -2.630  1.00  0.00    -0.249 OA
BRANCH   7   9
ATOM      9  O   UNL     1     -33.915  -1.025  -3.508  1.00  0.00    -0.479 OA
ATOM     10  H   UNL     1     -33.452  -0.557  -4.237  1.00  0.00    +0.296 HD
ENDBRANCH   7   9
ENDBRANCH   4   7
ENDBRANCH   1   4
BRANCH   1  11
ATOM     11  C   UNL     1     -34.206  -2.457   0.911  1.00  0.00    +0.335 C 
ATOM     12  O   UNL     1     -33.680  -2.512   2.009  1.00  0.00    -0.249 OA
BRANCH  11  13
ATOM     13  O   UNL     1     -35.208  -3.311   0.604  1.00  0.00    -0.479 OA
ATOM     14  H   UNL     1     -35.020  -4.084   1.180  1.00  0.00    +0.296 HD
ENDBRANCH  11  13
ENDBRANCH   1  11
TORSDOF 7
ENDMDL
MODEL 2
REMARK VINA RESULT:    -5.405      1.844      3.814
REMARK INTER + INTRA:          -7.436
REMARK INTER:                  -6.871
REMARK INTRA:                  -0.565
REMARK UNBOUND:                -0.452
REMARK SMILES O=C(O)[C@@H](O)[C@@H](O)C(=O)O
REMARK SMILES IDX 4 1 5 2 6 4 7 5 8 7 9 8 10 9 2 11 1 12 3 13
REMARK H PARENT 5 3 7 6 10 10 3 14
ROOT
ATOM      1  C   UNL     1     -33.435  -1.411   0.400  1.00  0.00    +0.264 C 
ENDROOT
BRANCH   1   2
ATOM      2  O   UNL     1     -32.929  -0.392  -0.467  1.00  0.00    -0.379 OA
ATOM      3  H   UNL     1     -33.259   0.450  -0.096  1.00  0.00    +0.211 HD
ENDBRANCH   1   2
BRANCH   1   4
ATOM      4  C   UNL     1     -33.719  -0.811   1.779  1.00  0.00    +0.264 C 
BRANCH   4   5
ATOM      5  O   UNL     1     -33.510  -1.852   2.757  1.00  0.00    -0.379 OA
ATOM      6  H   UNL     1     -34.239  -1.747   3.404  1.00  0.00    +0.211 HD
ENDBRANCH   4   5
BRANCH   4   7
ATOM      7  C   UNL     1     -32.837   0.405   2.068  1.00  0.00    +0.335 C 
ATOM      8  O   UNL     1     -33.157   1.580   2.072  1.00  0.00    -0.249 OA
BRANCH   7   9
ATOM      9  O   UNL     1     -31.579   0.040   2.418  1.00  0.00    -0.479 OA
ATOM     10  H   UNL     1     -31.399   0.572   3.224  1.00  0.00    +0.296 HD
ENDBRANCH   7   9
ENDBRANCH   4   7
ENDBRANCH   1   4
BRANCH   1  11
ATOM     11  C   UNL     1     -34.636  -2.173  -0.159  1.00  0.00    +0.335 C 
ATOM     12  O   UNL     1     -35.218  -1.977  -1.212  1.00  0.00    -0.249 OA
BRANCH  11  13
ATOM     13  O   UNL     1     -35.006  -3.207   0.629  1.00  0.00    -0.479 OA
ATOM     14  H   UNL     1     -34.242  -3.300   1.240  1.00  0.00    +0.296 HD
ENDBRANCH  11  13
ENDBRANCH   1  11
TORSDOF 7
ENDMDL
MODEL 3
REMARK VINA RESULT:    -5.376      1.333      2.231
REMARK INTER + INTRA:          -7.399
REMARK INTER:                  -6.899
REMARK INTRA:                  -0.500
REMARK UNBOUND:                -0.452
REMARK SMILES O=C(O)[C@@H](O)[C@@H](O)C(=O)O
REMARK SMILES IDX 4 1 5 2 6 4 7 5 8 7 9 8 10 9 2 11 1 12 3 13
REMARK H PARENT 5 3 7 6 10 10 3 14
ROOT
ATOM      1  C   UNL     1     -33.750  -0.934   0.305  1.00  0.00    +0.264 C 
ENDROOT
BRANCH   1   2
ATOM      2  O   UNL     1     -33.197  -0.067  -0.690  1.00  0.00    -0.379 OA
ATOM      3  H   UNL     1     -32.345  -0.476  -0.944  1.00  0.00    +0.211 HD
ENDBRANCH   1   2
BRANCH   1   4
ATOM      4  C   UNL     1     -33.817  -2.361  -0.244  1.00  0.00    +0.264 C 
BRANCH   4   5
ATOM      5  O   UNL     1     -34.948  -3.011   0.373  1.00  0.00    -0.379 OA
ATOM      6  H   UNL     1     -34.707  -3.104   1.319  1.00  0.00    +0.211 HD
ENDBRANCH   4   5
BRANCH   4   7
ATOM      7  C   UNL     1     -33.930  -2.384  -1.770  1.00  0.00    +0.335 C 
ATOM      8  O   UNL     1     -34.659  -1.714  -2.479  1.00  0.00    -0.249 OA
BRANCH   7   9
ATOM      9  O   UNL     1     -33.028  -3.231  -2.325  1.00  0.00    -0.479 OA
ATOM     10  H   UNL     1     -33.224  -3.179  -3.287  1.00  0.00    +0.296 HD
ENDBRANCH   7   9
ENDBRANCH   4   7
ENDBRANCH   1   4
BRANCH   1  11
ATOM     11  C   UNL     1     -33.045  -0.867   1.660  1.00  0.00    +0.335 C 
ATOM     12  O   UNL     1     -32.004  -0.293   1.930  1.00  0.00    -0.249 OA
BRANCH  11  13
ATOM     13  O   UNL     1     -33.742  -1.488   2.638  1.00  0.00    -0.479 OA
ATOM     14  H   UNL     1     -33.463  -2.425   2.543  1.00  0.00    +0.296 HD
ENDBRANCH  11  13
ENDBRANCH   1  11
TORSDOF 7
ENDMDL
MODEL 4
REMARK VINA RESULT:    -5.227      1.423      2.038
REMARK INTER + INTRA:          -7.206
REMARK INTER:                  -7.036
REMARK INTRA:                  -0.170
REMARK UNBOUND:                -0.452
REMARK SMILES O=C(O)[C@@H](O)[C@@H](O)C(=O)O
REMARK SMILES IDX 4 1 5 2 6 4 7 5 8 7 9 8 10 9 2 11 1 12 3 13
REMARK H PARENT 5 3 7 6 10 10 3 14
ROOT
ATOM      1  C   UNL     1     -33.846  -2.348   0.507  1.00  0.00    +0.264 C 
ENDROOT
BRANCH   1   2
ATOM      2  O   UNL     1     -35.268  -2.499   0.488  1.00  0.00    -0.379 OA
ATOM      3  H   UNL     1     -35.624  -1.588   0.464  1.00  0.00    +0.211 HD
ENDBRANCH   1   2
BRANCH   1   4
ATOM      4  C   UNL     1     -33.367  -1.868  -0.865  1.00  0.00    +0.264 C 
BRANCH   4   5
ATOM      5  O   UNL     1     -33.731  -2.879  -1.830  1.00  0.00    -0.379 OA
ATOM      6  H   UNL     1     -34.416  -2.462  -2.394  1.00  0.00    +0.211 HD
ENDBRANCH   4   5
BRANCH   4   7
ATOM      7  C   UNL     1     -33.961  -0.508  -1.238  1.00  0.00    +0.335 C 
ATOM      8  O   UNL     1     -33.464   0.594  -1.092  1.00  0.00    -0.249 OA
BRANCH   7   9
ATOM      9  O   UNL     1     -35.159  -0.639  -1.859  1.00  0.00    -0.479 OA
ATOM     10  H   UNL     1     -35.547  -1.443  -1.450  1.00  0.00    +0.296 HD
ENDBRANCH   7   9
ENDBRANCH   4   7
ENDBRANCH   1   4
BRANCH   1  11
ATOM     11  C   UNL     1     -33.321  -1.471   1.643  1.00  0.00    +0.335 C 
ATOM     12  O   UNL     1     -32.409  -0.663   1.600  1.00  0.00    -0.249 OA
BRANCH  11  13
ATOM     13  O   UNL     1     -34.033  -1.617   2.782  1.00  0.00    -0.479 OA
ATOM     14  H   UNL     1     -34.958  -1.672   2.456  1.00  0.00    +0.296 HD
ENDBRANCH  11  13
ENDBRANCH   1  11
TORSDOF 7
ENDMDL
MODEL 5
REMARK VINA RESULT:    -5.118      1.194      2.220
REMARK INTER + INTRA:          -7.066
REMARK INTER:                  -6.616
REMARK INTRA:                  -0.450
REMARK UNBOUND:                -0.452
REMARK SMILES O=C(O)[C@@H](O)[C@@H](O)C(=O)O
REMARK SMILES IDX 4 1 5 2 6 4 7 5 8 7 9 8 10 9 2 11 1 12 3 13
REMARK H PARENT 5 3 7 6 10 10 3 14
ROOT
ATOM      1  C   UNL     1     -34.048  -2.370  -0.393  1.00  0.00    +0.264 C 
ENDROOT
BRANCH   1   2
ATOM      2  O   UNL     1     -35.121  -3.128   0.173  1.00  0.00    -0.379 OA
ATOM      3  H   UNL     1     -35.785  -2.467   0.452  1.00  0.00    +0.211 HD
ENDBRANCH   1   2
BRANCH   1   4
ATOM      4  C   UNL     1     -34.489  -1.791  -1.739  1.00  0.00    +0.264 C 
BRANCH   4   5
ATOM      5  O   UNL     1     -34.951  -0.444  -1.502  1.00  0.00    -0.379 OA
ATOM      6  H   UNL     1     -35.896  -0.446  -1.764  1.00  0.00    +0.211 HD
ENDBRANCH   4   5
BRANCH   4   7
ATOM      7  C   UNL     1     -33.361  -1.816  -2.772  1.00  0.00    +0.335 C 
ATOM      8  O   UNL     1     -33.139  -2.661  -3.620  1.00  0.00    -0.249 OA
BRANCH   7   9
ATOM      9  O   UNL     1     -32.602  -0.694  -2.711  1.00  0.00    -0.479 OA
ATOM     10  H   UNL     1     -33.045  -0.151  -2.023  1.00  0.00    +0.296 HD
ENDBRANCH   7   9
ENDBRANCH   4   7
ENDBRANCH   1   4
BRANCH   1  11
ATOM     11  C   UNL     1     -33.474  -1.302   0.538  1.00  0.00    +0.335 C 
ATOM     12  O   UNL     1     -32.882  -0.283   0.226  1.00  0.00    -0.249 OA
BRANCH  11  13
ATOM     13  O   UNL     1     -33.740  -1.551   1.839  1.00  0.00    -0.479 OA
ATOM     14  H   UNL     1     -32.991  -1.115   2.303  1.00  0.00    +0.296 HD
ENDBRANCH  11  13
ENDBRANCH   1  11
TORSDOF 7
ENDMDL
MODEL 6
REMARK VINA RESULT:    -5.095      1.066      4.195
REMARK INTER + INTRA:          -7.036
REMARK INTER:                  -6.571
REMARK INTRA:                  -0.465
REMARK UNBOUND:                -0.452
REMARK SMILES O=C(O)[C@@H](O)[C@@H](O)C(=O)O
REMARK SMILES IDX 4 1 5 2 6 4 7 5 8 7 9 8 10 9 2 11 1 12 3 13
REMARK H PARENT 5 3 7 6 10 10 3 14
ROOT
ATOM      1  C   UNL     1     -34.164  -1.476  -0.692  1.00  0.00    +0.264 C 
ENDROOT
BRANCH   1   2
ATOM      2  O   UNL     1     -34.552  -2.851  -0.606  1.00  0.00    -0.379 OA
ATOM      3  H   UNL     1     -34.473  -3.082   0.341  1.00  0.00    +0.211 HD
ENDBRANCH   1   2
BRANCH   1   4
ATOM      4  C   UNL     1     -33.183  -1.153   0.437  1.00  0.00    +0.264 C 
BRANCH   4   5
ATOM      5  O   UNL     1     -32.993   0.278   0.450  1.00  0.00    -0.379 OA
ATOM      6  H   UNL     1     -32.123   0.427   0.021  1.00  0.00    +0.211 HD
ENDBRANCH   4   5
BRANCH   4   7
ATOM      7  C   UNL     1     -33.680  -1.658   1.792  1.00  0.00    +0.335 C 
ATOM      8  O   UNL     1     -33.941  -2.803   2.117  1.00  0.00    -0.249 OA
BRANCH   7   9
ATOM      9  O   UNL     1     -33.748  -0.658   2.705  1.00  0.00    -0.479 OA
ATOM     10  H   UNL     1     -33.415   0.126   2.216  1.00  0.00    +0.296 HD
ENDBRANCH   7   9
ENDBRANCH   4   7
ENDBRANCH   1   4
BRANCH   1  11
ATOM     11  C   UNL     1     -33.631  -1.058  -2.062  1.00  0.00    +0.335 C 
ATOM     12  O   UNL     1     -32.482  -0.784  -2.362  1.00  0.00    -0.249 OA
BRANCH  11  13
ATOM     13  O   UNL     1     -34.588  -1.071  -3.016  1.00  0.00    -0.479 OA
ATOM     14  H   UNL     1     -35.368  -0.701  -2.548  1.00  0.00    +0.296 HD
ENDBRANCH  11  13
ENDBRANCH   1  11
TORSDOF 7
ENDMDL
MODEL 7
REMARK VINA RESULT:    -5.040      1.947      3.624
REMARK INTER + INTRA:          -6.965
REMARK INTER:                  -6.506
REMARK INTRA:                  -0.458
REMARK UNBOUND:                -0.452
REMARK SMILES O=C(O)[C@@H](O)[C@@H](O)C(=O)O
REMARK SMILES IDX 4 1 5 2 6 4 7 5 8 7 9 8 10 9 2 11 1 12 3 13
REMARK H PARENT 5 3 7 6 10 10 3 14
ROOT
ATOM      1  C   UNL     1     -33.876  -1.257   1.154  1.00  0.00    +0.264 C 
ENDROOT
BRANCH   1   2
ATOM      2  O   UNL     1     -33.436  -1.774   2.413  1.00  0.00    -0.379 OA
ATOM      3  H   UNL     1     -33.690  -1.098   3.072  1.00  0.00    +0.211 HD
ENDBRANCH   1   2
BRANCH   1   4
ATOM      4  C   UNL     1     -32.937  -0.135   0.707  1.00  0.00    +0.264 C 
BRANCH   4   5
ATOM      5  O   UNL     1     -33.317   0.243  -0.633  1.00  0.00    -0.379 OA
ATOM      6  H   UNL     1     -34.080   0.850  -0.523  1.00  0.00    +0.211 HD
ENDBRANCH   4   5
BRANCH   4   7
ATOM      7  C   UNL     1     -32.984   1.065   1.656  1.00  0.00    +0.335 C 
ATOM      8  O   UNL     1     -33.367   1.093   2.812  1.00  0.00    -0.249 OA
BRANCH   7   9
ATOM      9  O   UNL     1     -32.457   2.176   1.084  1.00  0.00    -0.479 OA
ATOM     10  H   UNL     1     -31.583   2.270   1.523  1.00  0.00    +0.296 HD
ENDBRANCH   7   9
ENDBRANCH   4   7
ENDBRANCH   1   4
BRANCH   1  11
ATOM     11  C   UNL     1     -34.068  -2.318   0.071  1.00  0.00    +0.335 C 
ATOM     12  O   UNL     1     -33.408  -2.476  -0.942  1.00  0.00    -0.249 OA
BRANCH  11  13
ATOM     13  O   UNL     1     -35.064  -3.183   0.363  1.00  0.00    -0.479 OA
ATOM     14  H   UNL     1     -35.443  -2.809   1.189  1.00  0.00    +0.296 HD
ENDBRANCH  11  13
ENDBRANCH   1  11
TORSDOF 7
ENDMDL
MODEL 8
REMARK VINA RESULT:    -4.985     13.282     14.485
REMARK INTER + INTRA:          -6.894
REMARK INTER:                  -6.409
REMARK INTRA:                  -0.485
REMARK UNBOUND:                -0.452
REMARK SMILES O=C(O)[C@@H](O)[C@@H](O)C(=O)O
REMARK SMILES IDX 4 1 5 2 6 4 7 5 8 7 9 8 10 9 2 11 1 12 3 13
REMARK H PARENT 5 3 7 6 10 10 3 14
ROOT
ATOM      1  C   UNL     1     -25.618   3.931  10.241  1.00  0.00    +0.264 C 
ENDROOT
BRANCH   1   2
ATOM      2  O   UNL     1     -26.170   4.397  11.476  1.00  0.00    -0.379 OA
ATOM      3  H   UNL     1     -25.640   5.184  11.714  1.00  0.00    +0.211 HD
ENDBRANCH   1   2
BRANCH   1   4
ATOM      4  C   UNL     1     -26.090   2.498   9.981  1.00  0.00    +0.264 C 
BRANCH   4   5
ATOM      5  O   UNL     1     -26.775   2.491   8.710  1.00  0.00    -0.379 OA
ATOM      6  H   UNL     1     -26.098   2.754   8.051  1.00  0.00    +0.211 HD
ENDBRANCH   4   5
BRANCH   4   7
ATOM      7  C   UNL     1     -24.931   1.500   9.991  1.00  0.00    +0.335 C 
ATOM      8  O   UNL     1     -24.080   1.347  10.849  1.00  0.00    -0.249 OA
BRANCH   7   9
ATOM      9  O   UNL     1     -24.966   0.681   8.912  1.00  0.00    -0.479 OA
ATOM     10  H   UNL     1     -25.670   0.033   9.135  1.00  0.00    +0.296 HD
ENDBRANCH   7   9
ENDBRANCH   4   7
ENDBRANCH   1   4
BRANCH   1  11
ATOM     11  C   UNL     1     -25.876   4.851   9.049  1.00  0.00    +0.335 C 
ATOM     12  O   UNL     1     -25.231   4.934   8.018  1.00  0.00    -0.249 OA
BRANCH  11  13
ATOM     13  O   UNL     1     -26.998   5.591   9.199  1.00  0.00    -0.479 OA
ATOM     14  H   UNL     1     -26.893   6.287   8.514  1.00  0.00    +0.296 HD
ENDBRANCH  11  13
ENDBRANCH   1  11
TORSDOF 7
ENDMDL
MODEL 9
REMARK VINA RESULT:    -4.921     13.724     15.243
REMARK INTER + INTRA:          -6.811
REMARK INTER:                  -6.419
REMARK INTRA:                  -0.392
REMARK UNBOUND:                -0.452
REMARK SMILES O=C(O)[C@@H](O)[C@@H](O)C(=O)O
REMARK SMILES IDX 4 1 5 2 6 4 7 5 8 7 9 8 10 9 2 11 1 12 3 13
REMARK H PARENT 5 3 7 6 10 10 3 14
ROOT
ATOM      1  C   UNL     1     -25.177   1.693  11.050  1.00  0.00    +0.264 C 
ENDROOT
BRANCH   1   2
ATOM      2  O   UNL     1     -24.558   0.692  11.864  1.00  0.00    -0.379 OA
ATOM      3  H   UNL     1     -23.624   0.969  11.948  1.00  0.00    +0.211 HD
ENDBRANCH   1   2
BRANCH   1   4
ATOM      4  C   UNL     1     -24.590   3.063  11.394  1.00  0.00    +0.264 C 
BRANCH   4   5
ATOM      5  O   UNL     1     -23.171   3.006  11.132  1.00  0.00    -0.379 OA
ATOM      6  H   UNL     1     -22.943   2.053  11.158  1.00  0.00    +0.211 HD
ENDBRANCH   4   5
BRANCH   4   7
ATOM      7  C   UNL     1     -25.255   4.189  10.600  1.00  0.00    +0.335 C 
ATOM      8  O   UNL     1     -24.782   4.848   9.692  1.00  0.00    -0.249 OA
BRANCH   7   9
ATOM      9  O   UNL     1     -26.548   4.367  10.970  1.00  0.00    -0.479 OA
ATOM     10  H   UNL     1     -26.630   3.830  11.789  1.00  0.00    +0.296 HD
ENDBRANCH   7   9
ENDBRANCH   4   7
ENDBRANCH   1   4
BRANCH   1  11
ATOM     11  C   UNL     1     -25.129   1.402   9.551  1.00  0.00    +0.335 C 
ATOM     12  O   UNL     1     -26.060   1.390   8.764  1.00  0.00    -0.249 OA
BRANCH  11  13
ATOM     13  O   UNL     1     -23.870   1.199   9.102  1.00  0.00    -0.479 OA
ATOM     14  H   UNL     1     -23.603   2.092   8.790  1.00  0.00    +0.296 HD
ENDBRANCH  11  13
ENDBRANCH   1  11
TORSDOF 7
ENDMDL
