MODEL 1
REMARK VINA RESULT:    -5.673      0.000      0.000
REMARK INTER + INTRA:          -9.534
REMARK INTER:                  -8.824
REMARK INTRA:                  -0.710
REMARK UNBOUND:                -0.710
REMARK SMILES CCCC[C@H](CC)COCCCN
REMARK SMILES IDX 8 1 5 2 4 3 3 4 2 5 1 6 6 7 7 8 9 9 10 10 11 11 12 12 13 13
REMARK H PARENT 13 14 13 15
ROOT
ATOM      1  C   UNL     1     -27.588   7.704   7.553  1.00  0.00    +0.163 C 
ENDROOT
BRANCH   1   2
ATOM      2  C   UNL     1     -28.696   8.585   6.935  1.00  0.00    +0.015 C 
BRANCH   2   3
ATOM      3  C   UNL     1     -28.439  10.054   7.347  1.00  0.00    +0.006 C 
BRANCH   3   4
ATOM      4  C   UNL     1     -28.538  11.055   6.190  1.00  0.00    +0.000 C 
BRANCH   4   5
ATOM      5  C   UNL     1     -29.866  11.813   6.228  1.00  0.00    -0.003 C 
ATOM      6  C   UNL     1     -30.431  11.877   7.638  1.00  0.00    +0.004 C 
ENDBRANCH   4   5
ENDBRANCH   3   4
ENDBRANCH   2   3
BRANCH   2   7
ATOM      7  C   UNL     1     -30.114   8.130   7.349  1.00  0.00    +0.002 C 
ATOM      8  C   UNL     1     -31.150   8.164   6.236  1.00  0.00    +0.004 C 
ENDBRANCH   2   7
ENDBRANCH   1   2
BRANCH   1   9
ATOM      9  O   UNL     1     -26.271   8.154   7.239  1.00  0.00    -0.381 OA
BRANCH   9  10
ATOM     10  C   UNL     1     -25.285   7.127   7.320  1.00  0.00    +0.161 C 
BRANCH  10  11
ATOM     11  C   UNL     1     -25.959   5.792   7.632  1.00  0.00    +0.043 C 
BRANCH  11  12
ATOM     12  C   UNL     1     -25.377   5.133   8.881  1.00  0.00    +0.080 C 
BRANCH  12  13
ATOM     13  N   UNL     1     -26.438   4.833   9.840  1.00  0.00    -0.330 NA
ATOM     14  H   UNL     1     -26.386   5.492  10.614  1.00  0.00    +0.118 HD
ATOM     15  H   UNL     1     -27.348   4.974   9.403  1.00  0.00    +0.118 HD
ENDBRANCH  12  13
ENDBRANCH  11  12
ENDBRANCH  10  11
ENDBRANCH   9  10
ENDBRANCH   1   9
TORSDOF 10
ENDMDL
MODEL 2
REMARK VINA RESULT:    -5.387      3.096      5.861
REMARK INTER + INTRA:          -9.089
REMARK INTER:                  -8.668
REMARK INTRA:                  -0.421
REMARK UNBOUND:                -0.710
REMARK SMILES CCCC[C@H](CC)COCCCN
REMARK SMILES IDX 8 1 5 2 4 3 3 4 2 5 1 6 6 7 7 8 9 9 10 10 11 11 12 12 13 13
REMARK H PARENT 13 14 13 15
ROOT
ATOM      1  C   UNL     1     -28.186  10.361   6.940  1.00  0.00    +0.163 C 
ENDROOT
BRANCH   1   2
ATOM      2  C   UNL     1     -27.535  10.450   5.542  1.00  0.00    +0.015 C 
BRANCH   2   3
ATOM      3  C   UNL     1     -26.453   9.349   5.435  1.00  0.00    +0.006 C 
BRANCH   3   4
ATOM      4  C   UNL     1     -25.298   9.509   6.430  1.00  0.00    +0.000 C 
BRANCH   4   5
ATOM      5  C   UNL     1     -24.538   8.194   6.609  1.00  0.00    -0.003 C 
ATOM      6  C   UNL     1     -25.463   7.071   7.051  1.00  0.00    +0.004 C 
ENDBRANCH   4   5
ENDBRANCH   3   4
ENDBRANCH   2   3
BRANCH   2   7
ATOM      7  C   UNL     1     -26.938  11.847   5.254  1.00  0.00    +0.002 C 
ATOM      8  C   UNL     1     -27.955  12.975   5.162  1.00  0.00    +0.004 C 
ENDBRANCH   2   7
ENDBRANCH   1   2
BRANCH   1   9
ATOM      9  O   UNL     1     -29.612  10.340   6.896  1.00  0.00    -0.381 OA
BRANCH   9  10
ATOM     10  C   UNL     1     -30.218  11.419   7.604  1.00  0.00    +0.161 C 
BRANCH  10  11
ATOM     11  C   UNL     1     -31.693  11.109   7.846  1.00  0.00    +0.043 C 
BRANCH  11  12
ATOM     12  C   UNL     1     -31.991   9.615   7.741  1.00  0.00    +0.080 C 
BRANCH  12  13
ATOM     13  N   UNL     1     -33.423   9.369   7.899  1.00  0.00    -0.330 NA
ATOM     14  H   UNL     1     -33.943  10.112   7.437  1.00  0.00    +0.118 HD
ATOM     15  H   UNL     1     -33.678   8.502   7.427  1.00  0.00    +0.118 HD
ENDBRANCH  12  13
ENDBRANCH  11  12
ENDBRANCH  10  11
ENDBRANCH   9  10
ENDBRANCH   1   9
TORSDOF 10
ENDMDL
MODEL 3
REMARK VINA RESULT:    -5.354      1.302      2.959
REMARK INTER + INTRA:          -9.038
REMARK INTER:                  -8.272
REMARK INTRA:                  -0.767
REMARK UNBOUND:                -0.710
REMARK SMILES CCCC[C@H](CC)COCCCN
REMARK SMILES IDX 8 1 5 2 4 3 3 4 2 5 1 6 6 7 7 8 9 9 10 10 11 11 12 12 13 13
REMARK H PARENT 13 14 13 15
ROOT
ATOM      1  C   UNL     1     -27.398   9.776   6.652  1.00  0.00    +0.163 C 
ENDROOT
BRANCH   1   2
ATOM      2  C   UNL     1     -28.881   9.849   7.076  1.00  0.00    +0.015 C 
BRANCH   2   3
ATOM      3  C   UNL     1     -29.605   8.592   6.538  1.00  0.00    +0.006 C 
BRANCH   3   4
ATOM      4  C   UNL     1     -30.861   8.207   7.328  1.00  0.00    +0.000 C 
BRANCH   4   5
ATOM      5  C   UNL     1     -32.123   8.398   6.485  1.00  0.00    -0.003 C 
ATOM      6  C   UNL     1     -32.152   7.446   5.300  1.00  0.00    +0.004 C 
ENDBRANCH   4   5
ENDBRANCH   3   4
ENDBRANCH   2   3
BRANCH   2   7
ATOM      7  C   UNL     1     -29.575  11.142   6.588  1.00  0.00    +0.002 C 
ATOM      8  C   UNL     1     -28.716  12.040   5.710  1.00  0.00    +0.004 C 
ENDBRANCH   2   7
ENDBRANCH   1   2
BRANCH   1   9
ATOM      9  O   UNL     1     -26.992   8.471   6.245  1.00  0.00    -0.381 OA
BRANCH   9  10
ATOM     10  C   UNL     1     -25.830   8.000   6.923  1.00  0.00    +0.161 C 
BRANCH  10  11
ATOM     11  C   UNL     1     -25.828   6.473   6.939  1.00  0.00    +0.043 C 
BRANCH  11  12
ATOM     12  C   UNL     1     -26.407   5.912   8.236  1.00  0.00    +0.080 C 
BRANCH  12  13
ATOM     13  N   UNL     1     -27.534   6.726   8.686  1.00  0.00    -0.330 NA
ATOM     14  H   UNL     1     -27.192   7.456   9.308  1.00  0.00    +0.118 HD
ATOM     15  H   UNL     1     -27.955   7.201   7.889  1.00  0.00    +0.118 HD
ENDBRANCH  12  13
ENDBRANCH  11  12
ENDBRANCH  10  11
ENDBRANCH   9  10
ENDBRANCH   1   9
TORSDOF 10
ENDMDL
MODEL 4
REMARK VINA RESULT:    -5.302      2.221      3.782
REMARK INTER + INTRA:          -8.956
REMARK INTER:                  -8.483
REMARK INTRA:                  -0.474
REMARK UNBOUND:                -0.710
REMARK SMILES CCCC[C@H](CC)COCCCN
REMARK SMILES IDX 8 1 5 2 4 3 3 4 2 5 1 6 6 7 7 8 9 9 10 10 11 11 12 12 13 13
REMARK H PARENT 13 14 13 15
ROOT
ATOM      1  C   UNL     1     -28.495   8.907   6.714  1.00  0.00    +0.163 C 
ENDROOT
BRANCH   1   2
ATOM      2  C   UNL     1     -29.875   9.275   7.300  1.00  0.00    +0.015 C 
BRANCH   2   3
ATOM      3  C   UNL     1     -30.837   8.086   7.070  1.00  0.00    +0.006 C 
BRANCH   3   4
ATOM      4  C   UNL     1     -32.015   8.405   6.143  1.00  0.00    +0.000 C 
BRANCH   4   5
ATOM      5  C   UNL     1     -32.154   7.350   5.044  1.00  0.00    -0.003 C 
ATOM      6  C   UNL     1     -33.132   6.255   5.442  1.00  0.00    +0.004 C 
ENDBRANCH   4   5
ENDBRANCH   3   4
ENDBRANCH   2   3
BRANCH   2   7
ATOM      7  C   UNL     1     -30.447  10.579   6.696  1.00  0.00    +0.002 C 
ATOM      8  C   UNL     1     -30.525  11.754   7.659  1.00  0.00    +0.004 C 
ENDBRANCH   2   7
ENDBRANCH   1   2
BRANCH   1   9
ATOM      9  O   UNL     1     -27.819  10.017   6.125  1.00  0.00    -0.381 OA
BRANCH   9  10
ATOM     10  C   UNL     1     -26.534   9.688   5.603  1.00  0.00    +0.161 C 
BRANCH  10  11
ATOM     11  C   UNL     1     -26.075   8.349   6.176  1.00  0.00    +0.043 C 
BRANCH  11  12
ATOM     12  C   UNL     1     -24.591   8.358   6.537  1.00  0.00    +0.080 C 
BRANCH  12  13
ATOM     13  N   UNL     1     -24.382   7.750   7.850  1.00  0.00    -0.330 NA
ATOM     14  H   UNL     1     -24.378   6.736   7.752  1.00  0.00    +0.118 HD
ATOM     15  H   UNL     1     -23.463   8.007   8.206  1.00  0.00    +0.118 HD
ENDBRANCH  12  13
ENDBRANCH  11  12
ENDBRANCH  10  11
ENDBRANCH   9  10
ENDBRANCH   1   9
TORSDOF 10
ENDMDL
MODEL 5
REMARK VINA RESULT:    -5.208      3.431      5.361
REMARK INTER + INTRA:          -8.810
REMARK INTER:                  -7.953
REMARK INTRA:                  -0.857
REMARK UNBOUND:                -0.710
REMARK SMILES CCCC[C@H](CC)COCCCN
REMARK SMILES IDX 8 1 5 2 4 3 3 4 2 5 1 6 6 7 7 8 9 9 10 10 11 11 12 12 13 13
REMARK H PARENT 13 14 13 15
ROOT
ATOM      1  C   UNL     1     -32.169   8.688   7.289  1.00  0.00    +0.163 C 
ENDROOT
BRANCH   1   2
ATOM      2  C   UNL     1     -30.803   9.406   7.302  1.00  0.00    +0.015 C 
BRANCH   2   3
ATOM      3  C   UNL     1     -30.950  10.751   6.551  1.00  0.00    +0.006 C 
BRANCH   3   4
ATOM      4  C   UNL     1     -29.962  11.832   7.005  1.00  0.00    +0.000 C 
BRANCH   4   5
ATOM      5  C   UNL     1     -29.194  12.412   5.816  1.00  0.00    -0.003 C 
ATOM      6  C   UNL     1     -27.875  11.688   5.598  1.00  0.00    +0.004 C 
ENDBRANCH   4   5
ENDBRANCH   3   4
ENDBRANCH   2   3
BRANCH   2   7
ATOM      7  C   UNL     1     -29.675   8.546   6.686  1.00  0.00    +0.002 C 
ATOM      8  C   UNL     1     -28.393   8.487   7.501  1.00  0.00    +0.004 C 
ENDBRANCH   2   7
ENDBRANCH   1   2
BRANCH   1   9
ATOM      9  O   UNL     1     -32.089   7.332   6.855  1.00  0.00    -0.381 OA
BRANCH   9  10
ATOM     10  C   UNL     1     -33.013   7.011   5.818  1.00  0.00    +0.161 C 
BRANCH  10  11
ATOM     11  C   UNL     1     -33.819   5.776   6.213  1.00  0.00    +0.043 C 
BRANCH  11  12
ATOM     12  C   UNL     1     -34.785   6.063   7.360  1.00  0.00    +0.080 C 
BRANCH  12  13
ATOM     13  N   UNL     1     -34.130   5.838   8.647  1.00  0.00    -0.330 NA
ATOM     14  H   UNL     1     -34.771   6.089   9.397  1.00  0.00    +0.118 HD
ATOM     15  H   UNL     1     -33.927   4.846   8.761  1.00  0.00    +0.118 HD
ENDBRANCH  12  13
ENDBRANCH  11  12
ENDBRANCH  10  11
ENDBRANCH   9  10
ENDBRANCH   1   9
TORSDOF 10
ENDMDL
MODEL 6
REMARK VINA RESULT:    -5.122      3.291      5.218
REMARK INTER + INTRA:          -8.677
REMARK INTER:                  -7.815
REMARK INTRA:                  -0.862
REMARK UNBOUND:                -0.710
REMARK SMILES CCCC[C@H](CC)COCCCN
REMARK SMILES IDX 8 1 5 2 4 3 3 4 2 5 1 6 6 7 7 8 9 9 10 10 11 11 12 12 13 13
REMARK H PARENT 13 14 13 15
ROOT
ATOM      1  C   UNL     1     -31.198  10.076   7.554  1.00  0.00    +0.163 C 
ENDROOT
BRANCH   1   2
ATOM      2  C   UNL     1     -30.050  10.457   6.595  1.00  0.00    +0.015 C 
BRANCH   2   3
ATOM      3  C   UNL     1     -28.705  10.146   7.293  1.00  0.00    +0.006 C 
BRANCH   3   4
ATOM      4  C   UNL     1     -27.981   8.914   6.736  1.00  0.00    +0.000 C 
BRANCH   4   5
ATOM      5  C   UNL     1     -26.994   9.305   5.635  1.00  0.00    -0.003 C 
ATOM      6  C   UNL     1     -25.778  10.019   6.204  1.00  0.00    +0.004 C 
ENDBRANCH   4   5
ENDBRANCH   3   4
ENDBRANCH   2   3
BRANCH   2   7
ATOM      7  C   UNL     1     -30.116  11.937   6.150  1.00  0.00    +0.002 C 
ATOM      8  C   UNL     1     -28.817  12.499   5.594  1.00  0.00    +0.004 C 
ENDBRANCH   2   7
ENDBRANCH   1   2
BRANCH   1   9
ATOM      9  O   UNL     1     -32.165   9.212   6.959  1.00  0.00    -0.381 OA
BRANCH   9  10
ATOM     10  C   UNL     1     -31.590   8.168   6.177  1.00  0.00    +0.161 C 
BRANCH  10  11
ATOM     11  C   UNL     1     -32.640   7.093   5.905  1.00  0.00    +0.043 C 
BRANCH  11  12
ATOM     12  C   UNL     1     -33.466   6.769   7.149  1.00  0.00    +0.080 C 
BRANCH  12  13
ATOM     13  N   UNL     1     -32.596   6.624   8.314  1.00  0.00    -0.330 NA
ATOM     14  H   UNL     1     -32.282   7.545   8.613  1.00  0.00    +0.118 HD
ATOM     15  H   UNL     1     -33.125   6.234   9.093  1.00  0.00    +0.118 HD
ENDBRANCH  12  13
ENDBRANCH  11  12
ENDBRANCH  10  11
ENDBRANCH   9  10
ENDBRANCH   1   9
TORSDOF 10
ENDMDL
MODEL 7
REMARK VINA RESULT:    -4.975      6.987      9.138
REMARK INTER + INTRA:          -8.448
REMARK INTER:                  -7.621
REMARK INTRA:                  -0.827
REMARK UNBOUND:                -0.710
REMARK SMILES CCCC[C@H](CC)COCCCN
REMARK SMILES IDX 8 1 5 2 4 3 3 4 2 5 1 6 6 7 7 8 9 9 10 10 11 11 12 12 13 13
REMARK H PARENT 13 14 13 15
ROOT
ATOM      1  C   UNL     1     -35.336   5.035   9.264  1.00  0.00    +0.163 C 
ENDROOT
BRANCH   1   2
ATOM      2  C   UNL     1     -34.120   5.517   8.444  1.00  0.00    +0.015 C 
BRANCH   2   3
ATOM      3  C   UNL     1     -34.329   5.100   6.968  1.00  0.00    +0.006 C 
BRANCH   3   4
ATOM      4  C   UNL     1     -34.321   6.273   5.981  1.00  0.00    +0.000 C 
BRANCH   4   5
ATOM      5  C   UNL     1     -32.956   6.417   5.306  1.00  0.00    -0.003 C 
ATOM      6  C   UNL     1     -32.277   7.721   5.696  1.00  0.00    +0.004 C 
ENDBRANCH   4   5
ENDBRANCH   3   4
ENDBRANCH   2   3
BRANCH   2   7
ATOM      7  C   UNL     1     -32.781   4.969   8.992  1.00  0.00    +0.002 C 
ATOM      8  C   UNL     1     -31.616   5.945   8.933  1.00  0.00    +0.004 C 
ENDBRANCH   2   7
ENDBRANCH   1   2
BRANCH   1   9
ATOM      9  O   UNL     1     -36.559   5.658   8.875  1.00  0.00    -0.381 OA
BRANCH   9  10
ATOM     10  C   UNL     1     -37.359   6.076   9.979  1.00  0.00    +0.161 C 
BRANCH  10  11
ATOM     11  C   UNL     1     -37.573   4.902  10.932  1.00  0.00    +0.043 C 
BRANCH  11  12
ATOM     12  C   UNL     1     -38.567   3.884  10.376  1.00  0.00    +0.080 C 
BRANCH  12  13
ATOM     13  N   UNL     1     -39.441   4.513   9.388  1.00  0.00    -0.330 NA
ATOM     14  H   UNL     1     -40.017   5.215   9.850  1.00  0.00    +0.118 HD
ATOM     15  H   UNL     1     -38.880   5.010   8.698  1.00  0.00    +0.118 HD
ENDBRANCH  12  13
ENDBRANCH  11  12
ENDBRANCH  10  11
ENDBRANCH   9  10
ENDBRANCH   1   9
TORSDOF 10
ENDMDL
MODEL 8
REMARK VINA RESULT:    -4.903      3.777      6.185
REMARK INTER + INTRA:          -8.336
REMARK INTER:                  -7.875
REMARK INTRA:                  -0.461
REMARK UNBOUND:                -0.710
REMARK SMILES CCCC[C@H](CC)COCCCN
REMARK SMILES IDX 8 1 5 2 4 3 3 4 2 5 1 6 6 7 7 8 9 9 10 10 11 11 12 12 13 13
REMARK H PARENT 13 14 13 15
ROOT
ATOM      1  C   UNL     1     -31.784   9.395   6.886  1.00  0.00    +0.163 C 
ENDROOT
BRANCH   1   2
ATOM      2  C   UNL     1     -30.928   8.123   6.705  1.00  0.00    +0.015 C 
BRANCH   2   3
ATOM      3  C   UNL     1     -31.498   7.015   7.621  1.00  0.00    +0.006 C 
BRANCH   3   4
ATOM      4  C   UNL     1     -33.002   6.774   7.450  1.00  0.00    +0.000 C 
BRANCH   4   5
ATOM      5  C   UNL     1     -33.281   5.837   6.274  1.00  0.00    -0.003 C 
ATOM      6  C   UNL     1     -33.827   6.595   5.074  1.00  0.00    +0.004 C 
ENDBRANCH   4   5
ENDBRANCH   3   4
ENDBRANCH   2   3
BRANCH   2   7
ATOM      7  C   UNL     1     -29.430   8.371   6.997  1.00  0.00    +0.002 C 
ATOM      8  C   UNL     1     -28.828   7.475   8.069  1.00  0.00    +0.004 C 
ENDBRANCH   2   7
ENDBRANCH   1   2
BRANCH   1   9
ATOM      9  O   UNL     1     -31.038  10.513   7.365  1.00  0.00    -0.381 OA
BRANCH   9  10
ATOM     10  C   UNL     1     -30.847  11.531   6.385  1.00  0.00    +0.161 C 
BRANCH  10  11
ATOM     11  C   UNL     1     -29.533  12.261   6.654  1.00  0.00    +0.043 C 
BRANCH  11  12
ATOM     12  C   UNL     1     -28.565  12.153   5.478  1.00  0.00    +0.080 C 
BRANCH  12  13
ATOM     13  N   UNL     1     -28.401  13.453   4.831  1.00  0.00    -0.330 NA
ATOM     14  H   UNL     1     -27.543  13.447   4.283  1.00  0.00    +0.118 HD
ATOM     15  H   UNL     1     -29.162  13.608   4.172  1.00  0.00    +0.118 HD
ENDBRANCH  12  13
ENDBRANCH  11  12
ENDBRANCH  10  11
ENDBRANCH   9  10
ENDBRANCH   1   9
TORSDOF 10
ENDMDL
MODEL 9
REMARK VINA RESULT:    -4.878      7.693      9.711
REMARK INTER + INTRA:          -8.297
REMARK INTER:                  -7.415
REMARK INTRA:                  -0.882
REMARK UNBOUND:                -0.710
REMARK SMILES CCCC[C@H](CC)COCCCN
REMARK SMILES IDX 8 1 5 2 4 3 3 4 2 5 1 6 6 7 7 8 9 9 10 10 11 11 12 12 13 13
REMARK H PARENT 13 14 13 15
ROOT
ATOM      1  C   UNL     1     -36.018   3.160   9.205  1.00  0.00    +0.163 C 
ENDROOT
BRANCH   1   2
ATOM      2  C   UNL     1     -35.875   3.826  10.591  1.00  0.00    +0.015 C 
BRANCH   2   3
ATOM      3  C   UNL     1     -36.494   5.242  10.519  1.00  0.00    +0.006 C 
BRANCH   3   4
ATOM      4  C   UNL     1     -37.891   5.347  11.143  1.00  0.00    +0.000 C 
BRANCH   4   5
ATOM      5  C   UNL     1     -38.923   5.808  10.113  1.00  0.00    -0.003 C 
ATOM      6  C   UNL     1     -39.226   4.714   9.100  1.00  0.00    +0.004 C 
ENDBRANCH   4   5
ENDBRANCH   3   4
ENDBRANCH   2   3
BRANCH   2   7
ATOM      7  C   UNL     1     -34.407   3.884  11.073  1.00  0.00    +0.002 C 
ATOM      8  C   UNL     1     -34.009   5.179  11.764  1.00  0.00    +0.004 C 
ENDBRANCH   2   7
ENDBRANCH   1   2
BRANCH   1   9
ATOM      9  O   UNL     1     -35.891   4.081   8.123  1.00  0.00    -0.381 OA
BRANCH   9  10
ATOM     10  C   UNL     1     -34.818   3.772   7.236  1.00  0.00    +0.161 C 
BRANCH  10  11
ATOM     11  C   UNL     1     -34.274   5.060   6.621  1.00  0.00    +0.043 C 
BRANCH  11  12
ATOM     12  C   UNL     1     -33.894   6.088   7.684  1.00  0.00    +0.080 C 
BRANCH  12  13
ATOM     13  N   UNL     1     -34.967   7.066   7.853  1.00  0.00    -0.330 NA
ATOM     14  H   UNL     1     -34.912   7.464   8.789  1.00  0.00    +0.118 HD
ATOM     15  H   UNL     1     -34.833   7.840   7.204  1.00  0.00    +0.118 HD
ENDBRANCH  12  13
ENDBRANCH  11  12
ENDBRANCH  10  11
ENDBRANCH   9  10
ENDBRANCH   1   9
TORSDOF 10
ENDMDL
