MODEL 1
REMARK VINA RESULT:    -8.733      0.000      0.000
REMARK INTER + INTRA:         -10.797
REMARK INTER:                 -10.519
REMARK INTRA:                  -0.278
REMARK UNBOUND:                -0.278
REMARK SMILES O=[N+]([O-])c1ccccc1C=Nc1ccccc1O
REMARK SMILES IDX 11 1 10 2 12 3 17 4 16 5 13 6 15 7 14 8 18 9 9 11 4 12 8 13
REMARK SMILES IDX 5 14 7 15 6 16 2 17 1 18 3 19
REMARK H PARENT 18 10
ROOT
ATOM      1  N   UNL     1     -26.986   8.130   7.658  1.00  0.00    -0.252 NA
ATOM      2  C   UNL     1     -28.129   8.405   7.118  1.00  0.00    +0.127 C 
ENDROOT
BRANCH   1   3
ATOM      3  C   UNL     1     -26.800   6.792   8.046  1.00  0.00    +0.105 A 
ATOM      4  C   UNL     1     -25.502   6.299   8.237  1.00  0.00    +0.141 A 
ATOM      5  C   UNL     1     -25.281   4.985   8.632  1.00  0.00    +0.048 A 
ATOM      6  C   UNL     1     -27.884   5.929   8.221  1.00  0.00    +0.032 A 
ATOM      7  C   UNL     1     -26.371   4.135   8.822  1.00  0.00    +0.004 A 
ATOM      8  C   UNL     1     -27.670   4.605   8.612  1.00  0.00    +0.003 A 
BRANCH   4   9
ATOM      9  O   UNL     1     -24.417   7.109   8.035  1.00  0.00    -0.506 OA
ATOM     10  H   UNL     1     -24.466   7.804   8.727  1.00  0.00    +0.293 HD
ENDBRANCH   4   9
ENDBRANCH   1   3
BRANCH   2  11
ATOM     11  C   UNL     1     -28.470   9.779   6.706  1.00  0.00    +0.071 A 
ATOM     12  C   UNL     1     -27.724  10.529   5.791  1.00  0.00    +0.278 A 
ATOM     13  C   UNL     1     -29.630  10.338   7.256  1.00  0.00    +0.017 A 
ATOM     14  C   UNL     1     -28.137  11.810   5.397  1.00  0.00    +0.086 A 
ATOM     15  C   UNL     1     -30.044  11.618   6.871  1.00  0.00    +0.001 A 
ATOM     16  C   UNL     1     -29.304  12.349   5.940  1.00  0.00    +0.007 A 
BRANCH  12  17
ATOM     17  N   UNL     1     -26.453  10.051   5.280  1.00  0.00    +0.063 N 
ATOM     18  O   UNL     1     -25.423  10.497   5.811  1.00  0.00    -0.258 OA
ATOM     19  O   UNL     1     -26.489   9.296   4.299  1.00  0.00    -0.258 OA
ENDBRANCH  12  17
ENDBRANCH   2  11
TORSDOF 4
ENDMDL
MODEL 2
REMARK VINA RESULT:    -8.199      3.366      4.430
REMARK INTER + INTRA:         -10.154
REMARK INTER:                  -9.783
REMARK INTRA:                  -0.371
REMARK UNBOUND:                -0.278
REMARK SMILES O=[N+]([O-])c1ccccc1C=Nc1ccccc1O
REMARK SMILES IDX 11 1 10 2 12 3 17 4 16 5 13 6 15 7 14 8 18 9 9 11 4 12 8 13
REMARK SMILES IDX 5 14 7 15 6 16 2 17 1 18 3 19
REMARK H PARENT 18 10
ROOT
ATOM      1  N   UNL     1     -30.829   8.338   6.487  1.00  0.00    -0.252 NA
ATOM      2  C   UNL     1     -30.088   9.102   7.222  1.00  0.00    +0.127 C 
ENDROOT
BRANCH   1   3
ATOM      3  C   UNL     1     -31.525   7.324   7.166  1.00  0.00    +0.105 A 
ATOM      4  C   UNL     1     -32.752   6.868   6.666  1.00  0.00    +0.141 A 
ATOM      5  C   UNL     1     -33.462   5.859   7.305  1.00  0.00    +0.048 A 
ATOM      6  C   UNL     1     -31.033   6.774   8.352  1.00  0.00    +0.032 A 
ATOM      7  C   UNL     1     -32.953   5.303   8.479  1.00  0.00    +0.004 A 
ATOM      8  C   UNL     1     -31.743   5.764   9.005  1.00  0.00    +0.003 A 
BRANCH   4   9
ATOM      9  O   UNL     1     -33.281   7.414   5.527  1.00  0.00    -0.506 OA
ATOM     10  H   UNL     1     -32.807   6.990   4.778  1.00  0.00    +0.293 HD
ENDBRANCH   4   9
ENDBRANCH   1   3
BRANCH   2  11
ATOM     11  C   UNL     1     -29.272  10.176   6.629  1.00  0.00    +0.071 A 
ATOM     12  C   UNL     1     -27.936  10.021   6.245  1.00  0.00    +0.278 A 
ATOM     13  C   UNL     1     -29.899  11.411   6.420  1.00  0.00    +0.017 A 
ATOM     14  C   UNL     1     -27.232  11.068   5.631  1.00  0.00    +0.086 A 
ATOM     15  C   UNL     1     -29.201  12.460   5.813  1.00  0.00    +0.001 A 
ATOM     16  C   UNL     1     -27.875  12.288   5.413  1.00  0.00    +0.007 A 
BRANCH  12  17
ATOM     17  N   UNL     1     -27.199   8.808   6.543  1.00  0.00    +0.063 N 
ATOM     18  O   UNL     1     -26.950   8.573   7.737  1.00  0.00    -0.258 OA
ATOM     19  O   UNL     1     -26.803   8.139   5.580  1.00  0.00    -0.258 OA
ENDBRANCH  12  17
ENDBRANCH   2  11
TORSDOF 4
ENDMDL
MODEL 3
REMARK VINA RESULT:    -8.176      8.751     10.224
REMARK INTER + INTRA:         -10.127
REMARK INTER:                  -9.685
REMARK INTRA:                  -0.442
REMARK UNBOUND:                -0.278
REMARK SMILES O=[N+]([O-])c1ccccc1C=Nc1ccccc1O
REMARK SMILES IDX 11 1 10 2 12 3 17 4 16 5 13 6 15 7 14 8 18 9 9 11 4 12 8 13
REMARK SMILES IDX 5 14 7 15 6 16 2 17 1 18 3 19
REMARK H PARENT 18 10
ROOT
ATOM      1  N   UNL     1     -34.326   4.817   8.069  1.00  0.00    -0.252 NA
ATOM      2  C   UNL     1     -35.432   5.270   8.564  1.00  0.00    +0.127 C 
ENDROOT
BRANCH   1   3
ATOM      3  C   UNL     1     -33.620   5.703   7.237  1.00  0.00    +0.105 A 
ATOM      4  C   UNL     1     -32.554   6.446   7.761  1.00  0.00    +0.141 A 
ATOM      5  C   UNL     1     -31.826   7.324   6.967  1.00  0.00    +0.048 A 
ATOM      6  C   UNL     1     -33.975   5.882   5.899  1.00  0.00    +0.032 A 
ATOM      7  C   UNL     1     -32.177   7.482   5.626  1.00  0.00    +0.004 A 
ATOM      8  C   UNL     1     -33.253   6.767   5.093  1.00  0.00    +0.003 A 
BRANCH   4   9
ATOM      9  O   UNL     1     -32.206   6.323   9.080  1.00  0.00    -0.506 OA
ATOM     10  H   UNL     1     -31.224   6.353   9.105  1.00  0.00    +0.293 HD
ENDBRANCH   4   9
ENDBRANCH   1   3
BRANCH   2  11
ATOM     11  C   UNL     1     -36.290   4.428   9.416  1.00  0.00    +0.071 A 
ATOM     12  C   UNL     1     -37.453   4.883  10.046  1.00  0.00    +0.278 A 
ATOM     13  C   UNL     1     -35.916   3.087   9.568  1.00  0.00    +0.017 A 
ATOM     14  C   UNL     1     -38.259   4.013  10.795  1.00  0.00    +0.086 A 
ATOM     15  C   UNL     1     -36.713   2.216  10.319  1.00  0.00    +0.001 A 
ATOM     16  C   UNL     1     -37.883   2.675  10.925  1.00  0.00    +0.007 A 
BRANCH  12  17
ATOM     17  N   UNL     1     -37.826   6.285  10.023  1.00  0.00    +0.063 N 
ATOM     18  O   UNL     1     -37.427   6.995  10.960  1.00  0.00    -0.258 OA
ATOM     19  O   UNL     1     -38.583   6.651   9.114  1.00  0.00    -0.258 OA
ENDBRANCH  12  17
ENDBRANCH   2  11
TORSDOF 4
ENDMDL
MODEL 4
REMARK VINA RESULT:    -8.017      4.011      5.069
REMARK INTER + INTRA:          -9.935
REMARK INTER:                  -9.448
REMARK INTRA:                  -0.487
REMARK UNBOUND:                -0.278
REMARK SMILES O=[N+]([O-])c1ccccc1C=Nc1ccccc1O
REMARK SMILES IDX 11 1 10 2 12 3 17 4 16 5 13 6 15 7 14 8 18 9 9 11 4 12 8 13
REMARK SMILES IDX 5 14 7 15 6 16 2 17 1 18 3 19
REMARK H PARENT 18 10
ROOT
ATOM      1  N   UNL     1     -30.860   8.086   6.553  1.00  0.00    -0.252 NA
ATOM      2  C   UNL     1     -29.796   8.514   7.150  1.00  0.00    +0.127 C 
ENDROOT
BRANCH   1   3
ATOM      3  C   UNL     1     -31.628   7.151   7.268  1.00  0.00    +0.105 A 
ATOM      4  C   UNL     1     -32.897   6.789   6.797  1.00  0.00    +0.141 A 
ATOM      5  C   UNL     1     -33.679   5.859   7.471  1.00  0.00    +0.048 A 
ATOM      6  C   UNL     1     -31.165   6.591   8.461  1.00  0.00    +0.032 A 
ATOM      7  C   UNL     1     -33.200   5.291   8.652  1.00  0.00    +0.004 A 
ATOM      8  C   UNL     1     -31.947   5.660   9.149  1.00  0.00    +0.003 A 
BRANCH   4   9
ATOM      9  O   UNL     1     -33.397   7.350   5.652  1.00  0.00    -0.506 OA
ATOM     10  H   UNL     1     -32.734   8.016   5.367  1.00  0.00    +0.293 HD
ENDBRANCH   4   9
ENDBRANCH   1   3
BRANCH   2  11
ATOM     11  C   UNL     1     -28.879   9.463   6.493  1.00  0.00    +0.071 A 
ATOM     12  C   UNL     1     -29.098  10.843   6.426  1.00  0.00    +0.278 A 
ATOM     13  C   UNL     1     -27.710   8.933   5.932  1.00  0.00    +0.017 A 
ATOM     14  C   UNL     1     -28.155  11.698   5.837  1.00  0.00    +0.086 A 
ATOM     15  C   UNL     1     -26.769   9.781   5.339  1.00  0.00    +0.001 A 
ATOM     16  C   UNL     1     -26.987  11.159   5.297  1.00  0.00    +0.007 A 
BRANCH  12  17
ATOM     17  N   UNL     1     -30.342  11.434   6.882  1.00  0.00    +0.063 N 
ATOM     18  O   UNL     1     -31.262  11.531   6.054  1.00  0.00    -0.258 OA
ATOM     19  O   UNL     1     -30.366  11.872   8.040  1.00  0.00    -0.258 OA
ENDBRANCH  12  17
ENDBRANCH   2  11
TORSDOF 4
ENDMDL
MODEL 5
REMARK VINA RESULT:    -7.929      3.069      3.901
REMARK INTER + INTRA:          -9.829
REMARK INTER:                  -9.598
REMARK INTRA:                  -0.231
REMARK UNBOUND:                -0.278
REMARK SMILES O=[N+]([O-])c1ccccc1C=Nc1ccccc1O
REMARK SMILES IDX 11 1 10 2 12 3 17 4 16 5 13 6 15 7 14 8 18 9 9 11 4 12 8 13
REMARK SMILES IDX 5 14 7 15 6 16 2 17 1 18 3 19
REMARK H PARENT 18 10
ROOT
ATOM      1  N   UNL     1     -30.518   8.277   6.540  1.00  0.00    -0.252 NA
ATOM      2  C   UNL     1     -30.170   9.334   7.199  1.00  0.00    +0.127 C 
ENDROOT
BRANCH   1   3
ATOM      3  C   UNL     1     -31.341   7.370   7.230  1.00  0.00    +0.105 A 
ATOM      4  C   UNL     1     -30.798   6.578   8.251  1.00  0.00    +0.141 A 
ATOM      5  C   UNL     1     -31.584   5.679   8.963  1.00  0.00    +0.048 A 
ATOM      6  C   UNL     1     -32.690   7.219   6.903  1.00  0.00    +0.032 A 
ATOM      7  C   UNL     1     -32.935   5.548   8.640  1.00  0.00    +0.004 A 
ATOM      8  C   UNL     1     -33.486   6.313   7.608  1.00  0.00    +0.003 A 
BRANCH   4   9
ATOM      9  O   UNL     1     -29.470   6.674   8.570  1.00  0.00    -0.506 OA
ATOM     10  H   UNL     1     -29.404   6.454   9.525  1.00  0.00    +0.293 HD
ENDBRANCH   4   9
ENDBRANCH   1   3
BRANCH   2  11
ATOM     11  C   UNL     1     -29.273  10.343   6.608  1.00  0.00    +0.071 A 
ATOM     12  C   UNL     1     -27.935  10.104   6.282  1.00  0.00    +0.278 A 
ATOM     13  C   UNL     1     -29.822  11.604   6.340  1.00  0.00    +0.017 A 
ATOM     14  C   UNL     1     -27.151  11.091   5.666  1.00  0.00    +0.086 A 
ATOM     15  C   UNL     1     -29.044  12.593   5.731  1.00  0.00    +0.001 A 
ATOM     16  C   UNL     1     -27.716  12.337   5.388  1.00  0.00    +0.007 A 
BRANCH  12  17
ATOM     17  N   UNL     1     -27.279   8.861   6.643  1.00  0.00    +0.063 N 
ATOM     18  O   UNL     1     -27.201   8.590   7.853  1.00  0.00    -0.258 OA
ATOM     19  O   UNL     1     -26.774   8.203   5.724  1.00  0.00    -0.258 OA
ENDBRANCH  12  17
ENDBRANCH   2  11
TORSDOF 4
ENDMDL
MODEL 6
REMARK VINA RESULT:    -7.805      4.775      7.235
REMARK INTER + INTRA:          -9.680
REMARK INTER:                  -9.223
REMARK INTRA:                  -0.457
REMARK UNBOUND:                -0.278
REMARK SMILES O=[N+]([O-])c1ccccc1C=Nc1ccccc1O
REMARK SMILES IDX 11 1 10 2 12 3 17 4 16 5 13 6 15 7 14 8 18 9 9 11 4 12 8 13
REMARK SMILES IDX 5 14 7 15 6 16 2 17 1 18 3 19
REMARK H PARENT 18 10
ROOT
ATOM      1  N   UNL     1     -30.513   7.954   7.687  1.00  0.00    -0.252 NA
ATOM      2  C   UNL     1     -31.756   7.594   7.664  1.00  0.00    +0.127 C 
ENDROOT
BRANCH   1   3
ATOM      3  C   UNL     1     -30.238   9.231   7.169  1.00  0.00    +0.105 A 
ATOM      4  C   UNL     1     -28.913   9.599   6.897  1.00  0.00    +0.141 A 
ATOM      5  C   UNL     1     -28.604  10.849   6.374  1.00  0.00    +0.048 A 
ATOM      6  C   UNL     1     -31.257  10.159   6.944  1.00  0.00    +0.032 A 
ATOM      7  C   UNL     1     -29.631  11.762   6.135  1.00  0.00    +0.004 A 
ATOM      8  C   UNL     1     -30.955  11.420   6.424  1.00  0.00    +0.003 A 
BRANCH   4   9
ATOM      9  O   UNL     1     -27.887   8.726   7.144  1.00  0.00    -0.506 OA
ATOM     10  H   UNL     1     -28.149   8.222   7.946  1.00  0.00    +0.293 HD
ENDBRANCH   4   9
ENDBRANCH   1   3
BRANCH   2  11
ATOM     11  C   UNL     1     -32.175   6.262   8.136  1.00  0.00    +0.071 A 
ATOM     12  C   UNL     1     -33.393   5.662   7.802  1.00  0.00    +0.278 A 
ATOM     13  C   UNL     1     -31.271   5.560   8.944  1.00  0.00    +0.017 A 
ATOM     14  C   UNL     1     -33.705   4.365   8.236  1.00  0.00    +0.086 A 
ATOM     15  C   UNL     1     -31.580   4.269   9.384  1.00  0.00    +0.001 A 
ATOM     16  C   UNL     1     -32.789   3.670   9.027  1.00  0.00    +0.007 A 
BRANCH  12  17
ATOM     17  N   UNL     1     -34.416   6.385   7.070  1.00  0.00    +0.063 N 
ATOM     18  O   UNL     1     -35.309   6.935   7.735  1.00  0.00    -0.258 OA
ATOM     19  O   UNL     1     -34.368   6.330   5.834  1.00  0.00    -0.258 OA
ENDBRANCH  12  17
ENDBRANCH   2  11
TORSDOF 4
ENDMDL
MODEL 7
REMARK VINA RESULT:    -7.487      8.418      9.950
REMARK INTER + INTRA:          -9.297
REMARK INTER:                  -8.801
REMARK INTRA:                  -0.496
REMARK UNBOUND:                -0.278
REMARK SMILES O=[N+]([O-])c1ccccc1C=Nc1ccccc1O
REMARK SMILES IDX 11 1 10 2 12 3 17 4 16 5 13 6 15 7 14 8 18 9 9 11 4 12 8 13
REMARK SMILES IDX 5 14 7 15 6 16 2 17 1 18 3 19
REMARK H PARENT 18 10
ROOT
ATOM      1  N   UNL     1     -34.772   5.566   7.546  1.00  0.00    -0.252 NA
ATOM      2  C   UNL     1     -35.207   5.783   8.745  1.00  0.00    +0.127 C 
ENDROOT
BRANCH   1   3
ATOM      3  C   UNL     1     -33.616   6.274   7.178  1.00  0.00    +0.105 A 
ATOM      4  C   UNL     1     -33.508   6.804   5.885  1.00  0.00    +0.141 A 
ATOM      5  C   UNL     1     -32.385   7.520   5.489  1.00  0.00    +0.048 A 
ATOM      6  C   UNL     1     -32.551   6.440   8.066  1.00  0.00    +0.032 A 
ATOM      7  C   UNL     1     -31.335   7.696   6.390  1.00  0.00    +0.004 A 
ATOM      8  C   UNL     1     -31.415   7.153   7.675  1.00  0.00    +0.003 A 
BRANCH   4   9
ATOM      9  O   UNL     1     -34.518   6.624   4.977  1.00  0.00    -0.506 OA
ATOM     10  H   UNL     1     -35.236   6.160   5.460  1.00  0.00    +0.293 HD
ENDBRANCH   4   9
ENDBRANCH   1   3
BRANCH   2  11
ATOM     11  C   UNL     1     -36.435   5.139   9.242  1.00  0.00    +0.071 A 
ATOM     12  C   UNL     1     -36.474   3.860   9.806  1.00  0.00    +0.278 A 
ATOM     13  C   UNL     1     -37.621   5.880   9.159  1.00  0.00    +0.017 A 
ATOM     14  C   UNL     1     -37.669   3.328  10.315  1.00  0.00    +0.086 A 
ATOM     15  C   UNL     1     -38.816   5.353   9.659  1.00  0.00    +0.001 A 
ATOM     16  C   UNL     1     -38.839   4.085  10.241  1.00  0.00    +0.007 A 
BRANCH  12  17
ATOM     17  N   UNL     1     -35.306   3.000   9.811  1.00  0.00    +0.063 N 
ATOM     18  O   UNL     1     -35.153   2.243   8.838  1.00  0.00    -0.258 OA
ATOM     19  O   UNL     1     -34.592   3.026  10.822  1.00  0.00    -0.258 OA
ENDBRANCH  12  17
ENDBRANCH   2  11
TORSDOF 4
ENDMDL
MODEL 8
REMARK VINA RESULT:    -7.441      8.215     11.087
REMARK INTER + INTRA:          -9.242
REMARK INTER:                  -8.746
REMARK INTRA:                  -0.496
REMARK UNBOUND:                -0.278
REMARK SMILES O=[N+]([O-])c1ccccc1C=Nc1ccccc1O
REMARK SMILES IDX 11 1 10 2 12 3 17 4 16 5 13 6 15 7 14 8 18 9 9 11 4 12 8 13
REMARK SMILES IDX 5 14 7 15 6 16 2 17 1 18 3 19
REMARK H PARENT 18 10
ROOT
ATOM      1  N   UNL     1     -26.885   0.614  12.421  1.00  0.00    -0.252 NA
ATOM      2  C   UNL     1     -28.151   0.871  12.489  1.00  0.00    +0.127 C 
ENDROOT
BRANCH   1   3
ATOM      3  C   UNL     1     -26.080   1.640  11.898  1.00  0.00    +0.105 A 
ATOM      4  C   UNL     1     -24.811   1.336  11.388  1.00  0.00    +0.141 A 
ATOM      5  C   UNL     1     -23.992   2.323  10.853  1.00  0.00    +0.048 A 
ATOM      6  C   UNL     1     -26.507   2.970  11.900  1.00  0.00    +0.032 A 
ATOM      7  C   UNL     1     -24.435   3.647  10.842  1.00  0.00    +0.004 A 
ATOM      8  C   UNL     1     -25.688   3.970  11.369  1.00  0.00    +0.003 A 
BRANCH   4   9
ATOM      9  O   UNL     1     -24.347   0.048  11.408  1.00  0.00    -0.506 OA
ATOM     10  H   UNL     1     -24.042  -0.144  10.494  1.00  0.00    +0.293 HD
ENDBRANCH   4   9
ENDBRANCH   1   3
BRANCH   2  11
ATOM     11  C   UNL     1     -29.111  -0.136  12.976  1.00  0.00    +0.071 A 
ATOM     12  C   UNL     1     -29.396  -0.355  14.328  1.00  0.00    +0.278 A 
ATOM     13  C   UNL     1     -29.788  -0.890  12.009  1.00  0.00    +0.017 A 
ATOM     14  C   UNL     1     -30.366  -1.289  14.722  1.00  0.00    +0.086 A 
ATOM     15  C   UNL     1     -30.752  -1.826  12.396  1.00  0.00    +0.001 A 
ATOM     16  C   UNL     1     -31.045  -2.021  13.747  1.00  0.00    +0.007 A 
BRANCH  12  17
ATOM     17  N   UNL     1     -28.644   0.308  15.376  1.00  0.00    +0.063 N 
ATOM     18  O   UNL     1     -27.630  -0.270  15.801  1.00  0.00    -0.258 OA
ATOM     19  O   UNL     1     -29.113   1.362  15.826  1.00  0.00    -0.258 OA
ENDBRANCH  12  17
ENDBRANCH   2  11
TORSDOF 4
ENDMDL
MODEL 9
REMARK VINA RESULT:    -7.414      7.829     10.356
REMARK INTER + INTRA:          -9.209
REMARK INTER:                  -8.761
REMARK INTRA:                  -0.448
REMARK UNBOUND:                -0.278
REMARK SMILES O=[N+]([O-])c1ccccc1C=Nc1ccccc1O
REMARK SMILES IDX 11 1 10 2 12 3 17 4 16 5 13 6 15 7 14 8 18 9 9 11 4 12 8 13
REMARK SMILES IDX 5 14 7 15 6 16 2 17 1 18 3 19
REMARK H PARENT 18 10
ROOT
ATOM      1  N   UNL     1     -27.882   1.075  10.464  1.00  0.00    -0.252 NA
ATOM      2  C   UNL     1     -28.643   0.857  11.488  1.00  0.00    +0.127 C 
ENDROOT
BRANCH   1   3
ATOM      3  C   UNL     1     -26.815   1.965  10.674  1.00  0.00    +0.105 A 
ATOM      4  C   UNL     1     -25.682   1.896   9.852  1.00  0.00    +0.141 A 
ATOM      5  C   UNL     1     -24.613   2.767  10.022  1.00  0.00    +0.048 A 
ATOM      6  C   UNL     1     -26.846   2.906  11.705  1.00  0.00    +0.032 A 
ATOM      7  C   UNL     1     -24.661   3.716  11.044  1.00  0.00    +0.004 A 
ATOM      8  C   UNL     1     -25.773   3.782  11.887  1.00  0.00    +0.003 A 
BRANCH   4   9
ATOM      9  O   UNL     1     -25.604   0.958   8.857  1.00  0.00    -0.506 OA
ATOM     10  H   UNL     1     -24.689   0.602   8.892  1.00  0.00    +0.293 HD
ENDBRANCH   4   9
ENDBRANCH   1   3
BRANCH   2  11
ATOM     11  C   UNL     1     -29.822  -0.021  11.392  1.00  0.00    +0.071 A 
ATOM     12  C   UNL     1     -30.572  -0.445  12.493  1.00  0.00    +0.278 A 
ATOM     13  C   UNL     1     -30.215  -0.420  10.108  1.00  0.00    +0.017 A 
ATOM     14  C   UNL     1     -31.721  -1.233  12.327  1.00  0.00    +0.086 A 
ATOM     15  C   UNL     1     -31.356  -1.211   9.937  1.00  0.00    +0.001 A 
ATOM     16  C   UNL     1     -32.111  -1.610  11.041  1.00  0.00    +0.007 A 
BRANCH  12  17
ATOM     17  N   UNL     1     -30.148  -0.163  13.851  1.00  0.00    +0.063 N 
ATOM     18  O   UNL     1     -30.615   0.852  14.394  1.00  0.00    -0.258 OA
ATOM     19  O   UNL     1     -29.290  -0.910  14.340  1.00  0.00    -0.258 OA
ENDBRANCH  12  17
ENDBRANCH   2  11
TORSDOF 4
ENDMDL
