REMARK SMILES O=C(O)[C@@H](O)[C@@H](O)C(=O)O
REMARK SMILES IDX 4 1 5 2 6 4 7 5 8 7 9 8 10 9 2 11 1 12 3 13
REMARK H PARENT 5 3 7 6 10 10 3 14
ROOT
ATOM      1  C   UNL     1      -0.823   0.582  -0.508  1.00  0.00    +0.264 C 
ENDROOT
BRANCH   1   2
ATOM      2  O   UNL     1      -0.109   1.479  -1.364  1.00  0.00    -0.379 OA
ATOM      3  H   UNL     1       0.145   0.945  -2.143  1.00  0.00    +0.211 HD
ENDBRANCH   1   2
BRANCH   1   4
ATOM      4  C   UNL     1      -0.045  -0.730  -0.384  1.00  0.00    +0.264 C 
BRANCH   4   5
ATOM      5  O   UNL     1       0.277  -1.172  -1.720  1.00  0.00    -0.379 OA
ATOM      6  H   UNL     1       1.087  -1.716  -1.623  1.00  0.00    +0.211 HD
ENDBRANCH   4   5
BRANCH   4   7
ATOM      7  C   UNL     1       1.217  -0.571   0.466  1.00  0.00    +0.335 C 
ATOM      8  O   UNL     1       1.327  -0.033   1.553  1.00  0.00    -0.249 OA
BRANCH   7   9
ATOM      9  O   UNL     1       2.283  -1.189  -0.100  1.00  0.00    -0.479 OA
ATOM     10  H   UNL     1       3.017  -1.006   0.527  1.00  0.00    +0.296 HD
ENDBRANCH   7   9
ENDBRANCH   4   7
ENDBRANCH   1   4
BRANCH   1  11
ATOM     11  C   UNL     1      -1.189   1.170   0.854  1.00  0.00    +0.335 C 
ATOM     12  O   UNL     1      -1.053   2.322   1.229  1.00  0.00    -0.249 OA
BRANCH  11  13
ATOM     13  O   UNL     1      -1.780   0.266   1.667  1.00  0.00    -0.479 OA
ATOM     14  H   UNL     1      -1.936   0.781   2.489  1.00  0.00    +0.296 HD
ENDBRANCH  11  13
ENDBRANCH   1  11
TORSDOF 7
