MODEL 1
REMARK VINA RESULT:    -5.027      0.000      0.000
REMARK INTER + INTRA:          -8.061
REMARK INTER:                  -7.379
REMARK INTRA:                  -0.682
REMARK UNBOUND:                -0.682
REMARK SMILES C[C@H](O)C(=O)OCCOCCO
REMARK SMILES IDX 7 1 6 2 4 3 5 4 2 5 1 6 3 7 8 9 9 10 10 11 11 12 12 13
REMARK H PARENT 3 8 12 14
ROOT
ATOM      1  C   UNL     1     -24.924   3.998  10.427  1.00  0.00    +0.261 C 
ENDROOT
BRANCH   1   2
ATOM      2  O   UNL     1     -25.451   4.050   9.092  1.00  0.00    -0.461 OA
BRANCH   2   3
ATOM      3  C   UNL     1     -26.751   4.458   8.991  1.00  0.00    +0.334 C 
ATOM      4  O   UNL     1     -27.707   3.897   9.510  1.00  0.00    -0.249 OA
BRANCH   3   5
ATOM      5  C   UNL     1     -26.851   5.694   8.090  1.00  0.00    +0.220 C 
ATOM      6  C   UNL     1     -25.470   6.071   7.582  1.00  0.00    +0.051 C 
BRANCH   5   7
ATOM      7  O   UNL     1     -27.433   6.827   8.731  1.00  0.00    -0.382 OA
ATOM      8  H   UNL     1     -27.693   7.444   8.021  1.00  0.00    +0.211 HD
ENDBRANCH   5   7
ENDBRANCH   3   5
ENDBRANCH   2   3
ENDBRANCH   1   2
BRANCH   1   9
ATOM      9  C   UNL     1     -23.950   2.834  10.602  1.00  0.00    +0.202 C 
BRANCH   9  10
ATOM     10  O   UNL     1     -24.099   1.934   9.504  1.00  0.00    -0.376 OA
BRANCH  10  11
ATOM     11  C   UNL     1     -24.582   0.642   9.903  1.00  0.00    +0.188 C 
BRANCH  11  12
ATOM     12  C   UNL     1     -26.099   0.562   9.738  1.00  0.00    +0.184 C 
BRANCH  12  13
ATOM     13  O   UNL     1     -26.500   1.279   8.572  1.00  0.00    -0.394 OA
ATOM     14  H   UNL     1     -26.010   2.123   8.595  1.00  0.00    +0.210 HD
ENDBRANCH  12  13
ENDBRANCH  11  12
ENDBRANCH  10  11
ENDBRANCH   9  10
ENDBRANCH   1   9
TORSDOF 9
ENDMDL
MODEL 2
REMARK VINA RESULT:    -4.778      1.620      4.976
REMARK INTER + INTRA:          -7.695
REMARK INTER:                  -7.343
REMARK INTRA:                  -0.352
REMARK UNBOUND:                -0.682
REMARK SMILES C[C@H](O)C(=O)OCCOCCO
REMARK SMILES IDX 7 1 6 2 4 3 5 4 2 5 1 6 3 7 8 9 9 10 10 11 11 12 12 13
REMARK H PARENT 3 8 12 14
ROOT
ATOM      1  C   UNL     1     -26.163   3.541  10.324  1.00  0.00    +0.261 C 
ENDROOT
BRANCH   1   2
ATOM      2  O   UNL     1     -25.614   2.266  10.691  1.00  0.00    -0.461 OA
BRANCH   2   3
ATOM      3  C   UNL     1     -25.358   1.417   9.652  1.00  0.00    +0.334 C 
ATOM      4  O   UNL     1     -26.124   1.188   8.725  1.00  0.00    -0.249 OA
BRANCH   3   5
ATOM      5  C   UNL     1     -23.990   0.750   9.836  1.00  0.00    +0.220 C 
ATOM      6  C   UNL     1     -23.559   0.856  11.289  1.00  0.00    +0.051 C 
BRANCH   5   7
ATOM      7  O   UNL     1     -22.966   1.298   9.009  1.00  0.00    -0.382 OA
ATOM      8  H   UNL     1     -22.806   0.650   8.297  1.00  0.00    +0.211 HD
ENDBRANCH   5   7
ENDBRANCH   3   5
ENDBRANCH   2   3
ENDBRANCH   1   2
BRANCH   1   9
ATOM      9  C   UNL     1     -25.086   4.487   9.795  1.00  0.00    +0.202 C 
BRANCH   9  10
ATOM     10  O   UNL     1     -25.259   4.649   8.387  1.00  0.00    -0.376 OA
BRANCH  10  11
ATOM     11  C   UNL     1     -26.060   5.791   8.051  1.00  0.00    +0.188 C 
BRANCH  11  12
ATOM     12  C   UNL     1     -25.270   6.763   7.178  1.00  0.00    +0.184 C 
BRANCH  12  13
ATOM     13  O   UNL     1     -24.416   7.565   7.992  1.00  0.00    -0.394 OA
ATOM     14  H   UNL     1     -25.008   8.124   8.531  1.00  0.00    +0.210 HD
ENDBRANCH  12  13
ENDBRANCH  11  12
ENDBRANCH  10  11
ENDBRANCH   9  10
ENDBRANCH   1   9
TORSDOF 9
ENDMDL
MODEL 3
REMARK VINA RESULT:    -4.754      4.021      6.329
REMARK INTER + INTRA:          -7.660
REMARK INTER:                  -7.112
REMARK INTRA:                  -0.549
REMARK UNBOUND:                -0.682
REMARK SMILES C[C@H](O)C(=O)OCCOCCO
REMARK SMILES IDX 7 1 6 2 4 3 5 4 2 5 1 6 3 7 8 9 9 10 10 11 11 12 12 13
REMARK H PARENT 3 8 12 14
ROOT
ATOM      1  C   UNL     1     -28.162   9.089   7.538  1.00  0.00    +0.261 C 
ENDROOT
BRANCH   1   2
ATOM      2  O   UNL     1     -26.796   9.447   7.276  1.00  0.00    -0.461 OA
BRANCH   2   3
ATOM      3  C   UNL     1     -26.492   9.678   5.964  1.00  0.00    +0.334 C 
ATOM      4  O   UNL     1     -26.257   8.811   5.134  1.00  0.00    -0.249 OA
BRANCH   3   5
ATOM      5  C   UNL     1     -26.439  11.185   5.689  1.00  0.00    +0.220 C 
ATOM      6  C   UNL     1     -27.845  11.715   5.464  1.00  0.00    +0.051 C 
BRANCH   5   7
ATOM      7  O   UNL     1     -25.627  11.537   4.571  1.00  0.00    -0.382 OA
ATOM      8  H   UNL     1     -24.768  11.094   4.701  1.00  0.00    +0.211 HD
ENDBRANCH   5   7
ENDBRANCH   3   5
ENDBRANCH   2   3
ENDBRANCH   1   2
BRANCH   1   9
ATOM      9  C   UNL     1     -28.328   7.578   7.689  1.00  0.00    +0.202 C 
BRANCH   9  10
ATOM     10  O   UNL     1     -27.320   7.085   8.572  1.00  0.00    -0.376 OA
BRANCH  10  11
ATOM     11  C   UNL     1     -26.756   5.839   8.137  1.00  0.00    +0.188 C 
BRANCH  11  12
ATOM     12  C   UNL     1     -25.505   6.081   7.295  1.00  0.00    +0.184 C 
BRANCH  12  13
ATOM     13  O   UNL     1     -24.855   7.276   7.722  1.00  0.00    -0.394 OA
ATOM     14  H   UNL     1     -23.899   7.123   7.593  1.00  0.00    +0.210 HD
ENDBRANCH  12  13
ENDBRANCH  11  12
ENDBRANCH  10  11
ENDBRANCH   9  10
ENDBRANCH   1   9
TORSDOF 9
ENDMDL
MODEL 4
REMARK VINA RESULT:    -4.711      4.734      7.900
REMARK INTER + INTRA:          -7.596
REMARK INTER:                  -7.384
REMARK INTRA:                  -0.213
REMARK UNBOUND:                -0.682
REMARK SMILES C[C@H](O)C(=O)OCCOCCO
REMARK SMILES IDX 7 1 6 2 4 3 5 4 2 5 1 6 3 7 8 9 9 10 10 11 11 12 12 13
REMARK H PARENT 3 8 12 14
ROOT
ATOM      1  C   UNL     1     -28.206   8.957   6.880  1.00  0.00    +0.261 C 
ENDROOT
BRANCH   1   2
ATOM      2  O   UNL     1     -26.825   8.850   7.256  1.00  0.00    -0.461 OA
BRANCH   2   3
ATOM      3  C   UNL     1     -25.981   8.420   6.272  1.00  0.00    +0.334 C 
ATOM      4  O   UNL     1     -26.054   8.739   5.093  1.00  0.00    -0.249 OA
BRANCH   3   5
ATOM      5  C   UNL     1     -24.953   7.437   6.846  1.00  0.00    +0.220 C 
ATOM      6  C   UNL     1     -25.635   6.124   7.189  1.00  0.00    +0.051 C 
BRANCH   5   7
ATOM      7  O   UNL     1     -24.276   7.923   8.003  1.00  0.00    -0.382 OA
ATOM      8  H   UNL     1     -23.509   8.434   7.682  1.00  0.00    +0.211 HD
ENDBRANCH   5   7
ENDBRANCH   3   5
ENDBRANCH   2   3
ENDBRANCH   1   2
BRANCH   1   9
ATOM      9  C   UNL     1     -28.659  10.415   6.813  1.00  0.00    +0.202 C 
BRANCH   9  10
ATOM     10  O   UNL     1     -29.900  10.549   7.508  1.00  0.00    -0.376 OA
BRANCH  10  11
ATOM     11  C   UNL     1     -31.024  10.106   6.733  1.00  0.00    +0.188 C 
BRANCH  11  12
ATOM     12  C   UNL     1     -31.982   9.286   7.595  1.00  0.00    +0.184 C 
BRANCH  12  13
ATOM     13  O   UNL     1     -33.019  10.125   8.101  1.00  0.00    -0.394 OA
ATOM     14  H   UNL     1     -33.763  10.039   7.475  1.00  0.00    +0.210 HD
ENDBRANCH  12  13
ENDBRANCH  11  12
ENDBRANCH  10  11
ENDBRANCH   9  10
ENDBRANCH   1   9
TORSDOF 9
ENDMDL
MODEL 5
REMARK VINA RESULT:    -4.689      1.720      5.384
REMARK INTER + INTRA:          -7.564
REMARK INTER:                  -7.323
REMARK INTRA:                  -0.241
REMARK UNBOUND:                -0.682
REMARK SMILES C[C@H](O)C(=O)OCCOCCO
REMARK SMILES IDX 7 1 6 2 4 3 5 4 2 5 1 6 3 7 8 9 9 10 10 11 11 12 12 13
REMARK H PARENT 3 8 12 14
ROOT
ATOM      1  C   UNL     1     -25.478   4.916   8.670  1.00  0.00    +0.261 C 
ENDROOT
BRANCH   1   2
ATOM      2  O   UNL     1     -25.733   3.543   9.007  1.00  0.00    -0.461 OA
BRANCH   2   3
ATOM      3  C   UNL     1     -25.136   3.100  10.153  1.00  0.00    +0.334 C 
ATOM      4  O   UNL     1     -24.914   3.786  11.141  1.00  0.00    -0.249 OA
BRANCH   3   5
ATOM      5  C   UNL     1     -24.737   1.627  10.008  1.00  0.00    +0.220 C 
ATOM      6  C   UNL     1     -23.223   1.503  10.019  1.00  0.00    +0.051 C 
BRANCH   5   7
ATOM      7  O   UNL     1     -25.243   1.007   8.828  1.00  0.00    -0.382 OA
ATOM      8  H   UNL     1     -24.789   0.147   8.750  1.00  0.00    +0.211 HD
ENDBRANCH   5   7
ENDBRANCH   3   5
ENDBRANCH   2   3
ENDBRANCH   1   2
BRANCH   1   9
ATOM      9  C   UNL     1     -26.743   5.620   8.184  1.00  0.00    +0.202 C 
BRANCH   9  10
ATOM     10  O   UNL     1     -26.474   7.016   8.044  1.00  0.00    -0.376 OA
BRANCH  10  11
ATOM     11  C   UNL     1     -26.085   7.379   6.712  1.00  0.00    +0.188 C 
BRANCH  11  12
ATOM     12  C   UNL     1     -24.743   8.108   6.724  1.00  0.00    +0.184 C 
BRANCH  12  13
ATOM     13  O   UNL     1     -24.141   7.997   8.012  1.00  0.00    -0.394 OA
ATOM     14  H   UNL     1     -23.529   8.754   8.088  1.00  0.00    +0.210 HD
ENDBRANCH  12  13
ENDBRANCH  11  12
ENDBRANCH  10  11
ENDBRANCH   9  10
ENDBRANCH   1   9
TORSDOF 9
ENDMDL
MODEL 6
REMARK VINA RESULT:    -4.630      4.575      8.257
REMARK INTER + INTRA:          -7.478
REMARK INTER:                  -7.258
REMARK INTRA:                  -0.220
REMARK UNBOUND:                -0.682
REMARK SMILES C[C@H](O)C(=O)OCCOCCO
REMARK SMILES IDX 7 1 6 2 4 3 5 4 2 5 1 6 3 7 8 9 9 10 10 11 11 12 12 13
REMARK H PARENT 3 8 12 14
ROOT
ATOM      1  C   UNL     1     -28.448   8.748   6.703  1.00  0.00    +0.261 C 
ENDROOT
BRANCH   1   2
ATOM      2  O   UNL     1     -28.051   8.271   7.998  1.00  0.00    -0.461 OA
BRANCH   2   3
ATOM      3  C   UNL     1     -27.442   7.048   8.011  1.00  0.00    +0.334 C 
ATOM      4  O   UNL     1     -27.846   6.067   8.620  1.00  0.00    -0.249 OA
BRANCH   3   5
ATOM      5  C   UNL     1     -26.147   7.091   7.191  1.00  0.00    +0.220 C 
ATOM      6  C   UNL     1     -25.439   5.750   7.282  1.00  0.00    +0.051 C 
BRANCH   5   7
ATOM      7  O   UNL     1     -25.245   8.119   7.593  1.00  0.00    -0.382 OA
ATOM      8  H   UNL     1     -24.347   7.794   7.394  1.00  0.00    +0.211 HD
ENDBRANCH   5   7
ENDBRANCH   3   5
ENDBRANCH   2   3
ENDBRANCH   1   2
BRANCH   1   9
ATOM      9  C   UNL     1     -28.177  10.243   6.547  1.00  0.00    +0.202 C 
BRANCH   9  10
ATOM     10  O   UNL     1     -29.344  10.970   6.932  1.00  0.00    -0.376 OA
BRANCH  10  11
ATOM     11  C   UNL     1     -29.555  12.148   6.139  1.00  0.00    +0.188 C 
BRANCH  11  12
ATOM     12  C   UNL     1     -28.255  12.583   5.466  1.00  0.00    +0.184 C 
BRANCH  12  13
ATOM     13  O   UNL     1     -28.474  13.772   4.710  1.00  0.00    -0.394 OA
ATOM     14  H   UNL     1     -28.267  13.543   3.783  1.00  0.00    +0.210 HD
ENDBRANCH  12  13
ENDBRANCH  11  12
ENDBRANCH  10  11
ENDBRANCH   9  10
ENDBRANCH   1   9
TORSDOF 9
ENDMDL
MODEL 7
REMARK VINA RESULT:    -4.550      2.335      4.619
REMARK INTER + INTRA:          -7.361
REMARK INTER:                  -6.623
REMARK INTRA:                  -0.737
REMARK UNBOUND:                -0.682
REMARK SMILES C[C@H](O)C(=O)OCCOCCO
REMARK SMILES IDX 7 1 6 2 4 3 5 4 2 5 1 6 3 7 8 9 9 10 10 11 11 12 12 13
REMARK H PARENT 3 8 12 14
ROOT
ATOM      1  C   UNL     1     -26.439   1.964   9.277  1.00  0.00    +0.261 C 
ENDROOT
BRANCH   1   2
ATOM      2  O   UNL     1     -25.240   1.253   8.930  1.00  0.00    -0.461 OA
BRANCH   2   3
ATOM      3  C   UNL     1     -24.627   0.599   9.962  1.00  0.00    +0.334 C 
ATOM      4  O   UNL     1     -25.197  -0.092  10.795  1.00  0.00    -0.249 OA
BRANCH   3   5
ATOM      5  C   UNL     1     -23.123   0.895   9.958  1.00  0.00    +0.220 C 
ATOM      6  C   UNL     1     -22.808   1.964  10.990  1.00  0.00    +0.051 C 
BRANCH   5   7
ATOM      7  O   UNL     1     -22.622   1.315   8.691  1.00  0.00    -0.382 OA
ATOM      8  H   UNL     1     -21.689   1.565   8.830  1.00  0.00    +0.211 HD
ENDBRANCH   5   7
ENDBRANCH   3   5
ENDBRANCH   2   3
ENDBRANCH   1   2
BRANCH   1   9
ATOM      9  C   UNL     1     -26.126   3.340   9.862  1.00  0.00    +0.202 C 
BRANCH   9  10
ATOM     10  O   UNL     1     -26.917   3.537  11.035  1.00  0.00    -0.376 OA
BRANCH  10  11
ATOM     11  C   UNL     1     -27.771   2.421  11.326  1.00  0.00    +0.188 C 
BRANCH  11  12
ATOM     12  C   UNL     1     -27.639   2.011  12.791  1.00  0.00    +0.184 C 
BRANCH  12  13
ATOM     13  O   UNL     1     -26.624   1.019  12.929  1.00  0.00    -0.394 OA
ATOM     14  H   UNL     1     -27.033   0.284  13.425  1.00  0.00    +0.210 HD
ENDBRANCH  12  13
ENDBRANCH  11  12
ENDBRANCH  10  11
ENDBRANCH   9  10
ENDBRANCH   1   9
TORSDOF 9
ENDMDL
MODEL 8
REMARK VINA RESULT:    -4.458      1.503      4.547
REMARK INTER + INTRA:          -7.226
REMARK INTER:                  -6.694
REMARK INTRA:                  -0.531
REMARK UNBOUND:                -0.682
REMARK SMILES C[C@H](O)C(=O)OCCOCCO
REMARK SMILES IDX 7 1 6 2 4 3 5 4 2 5 1 6 3 7 8 9 9 10 10 11 11 12 12 13
REMARK H PARENT 3 8 12 14
ROOT
ATOM      1  C   UNL     1     -25.889   3.569  11.378  1.00  0.00    +0.261 C 
ENDROOT
BRANCH   1   2
ATOM      2  O   UNL     1     -26.801   2.622  10.800  1.00  0.00    -0.461 OA
BRANCH   2   3
ATOM      3  C   UNL     1     -26.478   1.308  10.986  1.00  0.00    +0.334 C 
ATOM      4  O   UNL     1     -26.189   0.800  12.061  1.00  0.00    -0.249 OA
BRANCH   3   5
ATOM      5  C   UNL     1     -26.481   0.565   9.645  1.00  0.00    +0.220 C 
ATOM      6  C   UNL     1     -26.388  -0.931   9.887  1.00  0.00    +0.051 C 
BRANCH   5   7
ATOM      7  O   UNL     1     -25.429   0.958   8.767  1.00  0.00    -0.382 OA
ATOM      8  H   UNL     1     -25.354   1.929   8.840  1.00  0.00    +0.211 HD
ENDBRANCH   5   7
ENDBRANCH   3   5
ENDBRANCH   2   3
ENDBRANCH   1   2
BRANCH   1   9
ATOM      9  C   UNL     1     -24.651   3.763  10.504  1.00  0.00    +0.202 C 
BRANCH   9  10
ATOM     10  O   UNL     1     -25.061   3.918   9.145  1.00  0.00    -0.376 OA
BRANCH  10  11
ATOM     11  C   UNL     1     -25.424   5.268   8.821  1.00  0.00    +0.188 C 
BRANCH  11  12
ATOM     12  C   UNL     1     -26.895   5.348   8.419  1.00  0.00    +0.184 C 
BRANCH  12  13
ATOM     13  O   UNL     1     -27.421   6.631   8.753  1.00  0.00    -0.394 OA
ATOM     14  H   UNL     1     -27.259   6.746   9.709  1.00  0.00    +0.210 HD
ENDBRANCH  12  13
ENDBRANCH  11  12
ENDBRANCH  10  11
ENDBRANCH   9  10
ENDBRANCH   1   9
TORSDOF 9
ENDMDL
MODEL 9
REMARK VINA RESULT:    -4.452      8.952     10.298
REMARK INTER + INTRA:          -7.216
REMARK INTER:                  -6.301
REMARK INTRA:                  -0.915
REMARK UNBOUND:                -0.682
REMARK SMILES C[C@H](O)C(=O)OCCOCCO
REMARK SMILES IDX 7 1 6 2 4 3 5 4 2 5 1 6 3 7 8 9 9 10 10 11 11 12 12 13
REMARK H PARENT 3 8 12 14
ROOT
ATOM      1  C   UNL     1     -34.642   3.586   9.500  1.00  0.00    +0.261 C 
ENDROOT
BRANCH   1   2
ATOM      2  O   UNL     1     -35.549   3.906  10.566  1.00  0.00    -0.461 OA
BRANCH   2   3
ATOM      3  C   UNL     1     -35.302   5.084  11.212  1.00  0.00    +0.334 C 
ATOM      4  O   UNL     1     -34.310   5.321  11.888  1.00  0.00    -0.249 OA
BRANCH   3   5
ATOM      5  C   UNL     1     -36.471   6.055  11.011  1.00  0.00    +0.220 C 
ATOM      6  C   UNL     1     -37.785   5.296  11.083  1.00  0.00    +0.051 C 
BRANCH   5   7
ATOM      7  O   UNL     1     -36.418   6.772   9.780  1.00  0.00    -0.382 OA
ATOM      8  H   UNL     1     -35.677   6.394   9.270  1.00  0.00    +0.211 HD
ENDBRANCH   5   7
ENDBRANCH   3   5
ENDBRANCH   2   3
ENDBRANCH   1   2
BRANCH   1   9
ATOM      9  C   UNL     1     -35.314   3.709   8.134  1.00  0.00    +0.202 C 
BRANCH   9  10
ATOM     10  O   UNL     1     -35.153   5.044   7.654  1.00  0.00    -0.376 OA
BRANCH  10  11
ATOM     11  C   UNL     1     -33.799   5.511   7.748  1.00  0.00    +0.188 C 
BRANCH  11  12
ATOM     12  C   UNL     1     -33.654   6.878   7.082  1.00  0.00    +0.184 C 
BRANCH  12  13
ATOM     13  O   UNL     1     -34.462   7.837   7.762  1.00  0.00    -0.394 OA
ATOM     14  H   UNL     1     -35.134   7.324   8.250  1.00  0.00    +0.210 HD
ENDBRANCH  12  13
ENDBRANCH  11  12
ENDBRANCH  10  11
ENDBRANCH   9  10
ENDBRANCH   1   9
TORSDOF 9
ENDMDL
