REMARK SMILES N#Cc1cnn(-c2ccc([N+](=O)[O-])cc2)c1N
REMARK SMILES IDX 16 1 3 2 4 3 5 4 6 5 2 6 1 7 17 8 7 11 8 12 15 13 9 14 14 15
REMARK SMILES IDX 10 16 11 17 12 18 13 19
REMARK H PARENT 17 9 17 10
ROOT
ATOM      1  C   UNL     1      -2.221   0.041   0.256  1.00  0.00    +0.145 A 
ATOM      2  C   UNL     1      -3.302   0.208  -0.587  1.00  0.00    +0.114 A 
ATOM      3  C   UNL     1      -2.773   0.692  -1.788  1.00  0.00    +0.157 A 
ATOM      4  N   UNL     1      -1.448   0.819  -1.747  1.00  0.00    -0.173 NA
ATOM      5  N   UNL     1      -1.087   0.307  -0.533  1.00  0.00    -0.216 N 
ATOM      6  C   UNL     1      -4.676   0.003  -0.280  1.00  0.00    +0.105 C 
ATOM      7  N   UNL     1      -5.796  -0.156  -0.024  1.00  0.00    -0.192 NA
ENDROOT
BRANCH   1   8
ATOM      8  N   UNL     1      -2.196  -0.278   1.583  1.00  0.00    -0.382 N 
ATOM      9  H   UNL     1      -1.452   0.104   2.166  1.00  0.00    +0.158 HD
ATOM     10  H   UNL     1      -3.076  -0.284   2.103  1.00  0.00    +0.158 HD
ENDBRANCH   1   8
BRANCH   5  11
ATOM     11  C   UNL     1       0.300   0.107  -0.247  1.00  0.00    +0.067 A 
ATOM     12  C   UNL     1       1.261   0.739  -1.057  1.00  0.00    +0.035 A 
ATOM     13  C   UNL     1       0.727  -0.736   0.789  1.00  0.00    +0.035 A 
ATOM     14  C   UNL     1       2.627   0.565  -0.814  1.00  0.00    +0.088 A 
ATOM     15  C   UNL     1       2.094  -0.917   1.036  1.00  0.00    +0.088 A 
ATOM     16  C   UNL     1       3.039  -0.261   0.237  1.00  0.00    +0.269 A 
BRANCH  16  17
ATOM     17  N   UNL     1       4.472  -0.451   0.498  1.00  0.00    +0.062 N 
ATOM     18  O   UNL     1       5.276   0.130  -0.244  1.00  0.00    -0.258 OA
ATOM     19  O   UNL     1       4.792  -1.179   1.449  1.00  0.00    -0.258 OA
ENDBRANCH  16  17
ENDBRANCH   5  11
TORSDOF 3
