MODEL 1
REMARK VINA RESULT:    -7.356      0.000      0.000
REMARK INTER + INTRA:          -9.915
REMARK INTER:                  -9.506
REMARK INTRA:                  -0.409
REMARK UNBOUND:                -0.409
REMARK SMILES Cc1ccc(S(=O)(=O)OCCCCl)cc1
REMARK SMILES IDX 9 1 6 2 7 3 8 4 5 5 2 6 3 7 15 8 4 9 14 10 1 11 10 12 11 13
REMARK SMILES IDX 12 14 13 15
REMARK H PARENT
ROOT
ATOM      1  O   UNL     1     -25.931   8.303   5.949  1.00  0.00    -0.266 OA
ENDROOT
BRANCH   1   2
ATOM      2  S   UNL     1     -26.287   9.768   5.330  1.00  0.00    +0.296 S 
ATOM      3  O   UNL     1     -25.309  10.706   5.846  1.00  0.00    -0.194 OA
ATOM      4  O   UNL     1     -26.513   9.621   3.907  1.00  0.00    -0.194 OA
BRANCH   2   5
ATOM      5  C   UNL     1     -27.856  10.158   6.064  1.00  0.00    +0.094 A 
ATOM      6  C   UNL     1     -30.329  10.795   7.192  1.00  0.00    -0.051 A 
ATOM      7  C   UNL     1     -29.607  11.763   6.480  1.00  0.00    +0.005 A 
ATOM      8  C   UNL     1     -29.808   9.500   7.315  1.00  0.00    +0.005 A 
ATOM      9  C   UNL     1     -28.368  11.449   5.918  1.00  0.00    +0.023 A 
ATOM     10  C   UNL     1     -28.570   9.178   6.757  1.00  0.00    +0.023 A 
ATOM     11  C   UNL     1     -31.675  11.126   7.768  1.00  0.00    +0.044 C 
ENDBRANCH   2   5
ENDBRANCH   1   2
BRANCH   1  12
ATOM     12  C   UNL     1     -24.661   8.153   6.570  1.00  0.00    +0.184 C 
BRANCH  12  13
ATOM     13  C   UNL     1     -24.788   7.091   7.656  1.00  0.00    +0.046 C 
BRANCH  13  14
ATOM     14  C   UNL     1     -25.741   5.964   7.290  1.00  0.00    +0.112 C 
ATOM     15 Cl   UNL     1     -27.215   5.991   8.283  1.00  0.00    -0.127 Cl
ENDBRANCH  13  14
ENDBRANCH  12  13
ENDBRANCH   1  12
TORSDOF 5
ENDMDL
MODEL 2
REMARK VINA RESULT:    -6.492      1.541      2.209
REMARK INTER + INTRA:          -8.799
REMARK INTER:                  -8.585
REMARK INTRA:                  -0.214
REMARK UNBOUND:                -0.409
REMARK SMILES Cc1ccc(S(=O)(=O)OCCCCl)cc1
REMARK SMILES IDX 9 1 6 2 7 3 8 4 5 5 2 6 3 7 15 8 4 9 14 10 1 11 10 12 11 13
REMARK SMILES IDX 12 14 13 15
REMARK H PARENT
ROOT
ATOM      1  O   UNL     1     -26.531   7.019   6.907  1.00  0.00    -0.266 OA
ENDROOT
BRANCH   1   2
ATOM      2  S   UNL     1     -26.090   8.533   6.492  1.00  0.00    +0.296 S 
ATOM      3  O   UNL     1     -25.204   9.026   7.529  1.00  0.00    -0.194 OA
ATOM      4  O   UNL     1     -25.690   8.527   5.100  1.00  0.00    -0.194 OA
BRANCH   2   5
ATOM      5  C   UNL     1     -27.607   9.449   6.590  1.00  0.00    +0.094 A 
ATOM      6  C   UNL     1     -30.001  10.873   6.774  1.00  0.00    -0.051 A 
ATOM      7  C   UNL     1     -29.915   9.567   7.277  1.00  0.00    +0.005 A 
ATOM      8  C   UNL     1     -28.870  11.464   6.196  1.00  0.00    +0.005 A 
ATOM      9  C   UNL     1     -28.721   8.851   7.183  1.00  0.00    +0.023 A 
ATOM     10  C   UNL     1     -27.672  10.754   6.098  1.00  0.00    +0.023 A 
ATOM     11  C   UNL     1     -31.278  11.652   6.905  1.00  0.00    +0.044 C 
ENDBRANCH   2   5
ENDBRANCH   1   2
BRANCH   1  12
ATOM     12  C   UNL     1     -25.650   6.297   7.757  1.00  0.00    +0.184 C 
BRANCH  12  13
ATOM     13  C   UNL     1     -26.267   4.930   8.027  1.00  0.00    +0.046 C 
BRANCH  13  14
ATOM     14  C   UNL     1     -26.238   4.534   9.495  1.00  0.00    +0.112 C 
ATOM     15 Cl   UNL     1     -24.594   4.604  10.168  1.00  0.00    -0.127 Cl
ENDBRANCH  13  14
ENDBRANCH  12  13
ENDBRANCH   1  12
TORSDOF 5
ENDMDL
MODEL 3
REMARK VINA RESULT:    -6.303      5.036      6.509
REMARK INTER + INTRA:          -8.554
REMARK INTER:                  -8.287
REMARK INTRA:                  -0.267
REMARK UNBOUND:                -0.409
REMARK SMILES Cc1ccc(S(=O)(=O)OCCCCl)cc1
REMARK SMILES IDX 9 1 6 2 7 3 8 4 5 5 2 6 3 7 15 8 4 9 14 10 1 11 10 12 11 13
REMARK SMILES IDX 12 14 13 15
REMARK H PARENT
ROOT
ATOM      1  O   UNL     1     -26.258   4.372  10.843  1.00  0.00    -0.266 OA
ENDROOT
BRANCH   1   2
ATOM      2  S   UNL     1     -26.859   3.961   9.384  1.00  0.00    +0.296 S 
ATOM      3  O   UNL     1     -26.019   2.907   8.851  1.00  0.00    -0.194 OA
ATOM      4  O   UNL     1     -28.292   3.792   9.511  1.00  0.00    -0.194 OA
BRANCH   2   5
ATOM      5  C   UNL     1     -26.597   5.417   8.403  1.00  0.00    +0.094 A 
ATOM      6  C   UNL     1     -26.164   7.687   6.836  1.00  0.00    -0.051 A 
ATOM      7  C   UNL     1     -25.170   6.704   6.946  1.00  0.00    +0.005 A 
ATOM      8  C   UNL     1     -27.383   7.511   7.503  1.00  0.00    +0.005 A 
ATOM      9  C   UNL     1     -25.382   5.570   7.731  1.00  0.00    +0.023 A 
ATOM     10  C   UNL     1     -27.603   6.379   8.291  1.00  0.00    +0.023 A 
ATOM     11  C   UNL     1     -25.945   8.890   5.965  1.00  0.00    +0.044 C 
ENDBRANCH   2   5
ENDBRANCH   1   2
BRANCH   1  12
ATOM     12  C   UNL     1     -25.828   3.314  11.688  1.00  0.00    +0.184 C 
BRANCH  12  13
ATOM     13  C   UNL     1     -26.984   2.944  12.609  1.00  0.00    +0.046 C 
BRANCH  13  14
ATOM     14  C   UNL     1     -27.446   1.504  12.450  1.00  0.00    +0.112 C 
ATOM     15 Cl   UNL     1     -29.099   1.266  13.059  1.00  0.00    -0.127 Cl
ENDBRANCH  13  14
ENDBRANCH  12  13
ENDBRANCH   1  12
TORSDOF 5
ENDMDL
MODEL 4
REMARK VINA RESULT:    -6.288      5.126      6.516
REMARK INTER + INTRA:          -8.536
REMARK INTER:                  -8.268
REMARK INTRA:                  -0.267
REMARK UNBOUND:                -0.409
REMARK SMILES Cc1ccc(S(=O)(=O)OCCCCl)cc1
REMARK SMILES IDX 9 1 6 2 7 3 8 4 5 5 2 6 3 7 15 8 4 9 14 10 1 11 10 12 11 13
REMARK SMILES IDX 12 14 13 15
REMARK H PARENT
ROOT
ATOM      1  O   UNL     1     -26.078   2.707   8.924  1.00  0.00    -0.266 OA
ENDROOT
BRANCH   1   2
ATOM      2  S   UNL     1     -26.869   3.928   9.659  1.00  0.00    +0.296 S 
ATOM      3  O   UNL     1     -28.282   3.604   9.637  1.00  0.00    -0.194 OA
ATOM      4  O   UNL     1     -26.185   4.235  10.898  1.00  0.00    -0.194 OA
BRANCH   2   5
ATOM      5  C   UNL     1     -26.609   5.306   8.570  1.00  0.00    +0.094 A 
ATOM      6  C   UNL     1     -26.221   7.493   6.879  1.00  0.00    -0.051 A 
ATOM      7  C   UNL     1     -27.427   7.346   7.578  1.00  0.00    +0.005 A 
ATOM      8  C   UNL     1     -25.205   6.543   7.051  1.00  0.00    +0.005 A 
ATOM      9  C   UNL     1     -27.626   6.251   8.422  1.00  0.00    +0.023 A 
ATOM     10  C   UNL     1     -25.396   5.446   7.892  1.00  0.00    +0.023 A 
ATOM     11  C   UNL     1     -25.998   8.687   5.997  1.00  0.00    +0.044 C 
ENDBRANCH   2   5
ENDBRANCH   1   2
BRANCH   1  12
ATOM     12  C   UNL     1     -26.308   1.395   9.419  1.00  0.00    +0.184 C 
BRANCH  12  13
ATOM     13  C   UNL     1     -25.122   1.003  10.291  1.00  0.00    +0.046 C 
BRANCH  13  14
ATOM     14  C   UNL     1     -23.791   1.522   9.768  1.00  0.00    +0.112 C 
ATOM     15 Cl   UNL     1     -22.630   1.814  11.083  1.00  0.00    -0.127 Cl
ENDBRANCH  13  14
ENDBRANCH  12  13
ENDBRANCH   1  12
TORSDOF 5
ENDMDL
MODEL 5
REMARK VINA RESULT:    -6.077      8.350      9.282
REMARK INTER + INTRA:          -8.262
REMARK INTER:                  -7.398
REMARK INTRA:                  -0.865
REMARK UNBOUND:                -0.409
REMARK SMILES Cc1ccc(S(=O)(=O)OCCCCl)cc1
REMARK SMILES IDX 9 1 6 2 7 3 8 4 5 5 2 6 3 7 15 8 4 9 14 10 1 11 10 12 11 13
REMARK SMILES IDX 12 14 13 15
REMARK H PARENT
ROOT
ATOM      1  O   UNL     1     -26.076   2.098   9.129  1.00  0.00    -0.266 OA
ENDROOT
BRANCH   1   2
ATOM      2  S   UNL     1     -26.567   3.278  10.141  1.00  0.00    +0.296 S 
ATOM      3  O   UNL     1     -25.423   3.667  10.942  1.00  0.00    -0.194 OA
ATOM      4  O   UNL     1     -27.318   4.252   9.376  1.00  0.00    -0.194 OA
BRANCH   2   5
ATOM      5  C   UNL     1     -27.725   2.455  11.207  1.00  0.00    +0.094 A 
ATOM      6  C   UNL     1     -29.554   1.140  12.855  1.00  0.00    -0.051 A 
ATOM      7  C   UNL     1     -29.826   1.307  11.489  1.00  0.00    +0.005 A 
ATOM      8  C   UNL     1     -28.348   1.623  13.381  1.00  0.00    +0.005 A 
ATOM      9  C   UNL     1     -28.915   1.967  10.663  1.00  0.00    +0.023 A 
ATOM     10  C   UNL     1     -27.432   2.285  12.561  1.00  0.00    +0.023 A 
ATOM     11  C   UNL     1     -30.521   0.402  13.734  1.00  0.00    +0.044 C 
ENDBRANCH   2   5
ENDBRANCH   1   2
BRANCH   1  12
ATOM     12  C   UNL     1     -25.295   1.050   9.687  1.00  0.00    +0.184 C 
BRANCH  12  13
ATOM     13  C   UNL     1     -26.115  -0.233   9.632  1.00  0.00    +0.046 C 
BRANCH  13  14
ATOM     14  C   UNL     1     -26.131  -0.997  10.947  1.00  0.00    +0.112 C 
ATOM     15 Cl   UNL     1     -27.754  -1.604  11.342  1.00  0.00    -0.127 Cl
ENDBRANCH  13  14
ENDBRANCH  12  13
ENDBRANCH   1  12
TORSDOF 5
ENDMDL
MODEL 6
REMARK VINA RESULT:    -6.034      8.070      9.679
REMARK INTER + INTRA:          -8.207
REMARK INTER:                  -7.900
REMARK INTRA:                  -0.307
REMARK UNBOUND:                -0.409
REMARK SMILES Cc1ccc(S(=O)(=O)OCCCCl)cc1
REMARK SMILES IDX 9 1 6 2 7 3 8 4 5 5 2 6 3 7 15 8 4 9 14 10 1 11 10 12 11 13
REMARK SMILES IDX 12 14 13 15
REMARK H PARENT
ROOT
ATOM      1  O   UNL     1     -35.618   4.137   9.827  1.00  0.00    -0.266 OA
ENDROOT
BRANCH   1   2
ATOM      2  S   UNL     1     -34.162   3.607   9.320  1.00  0.00    +0.296 S 
ATOM      3  O   UNL     1     -33.238   3.754  10.429  1.00  0.00    -0.194 OA
ATOM      4  O   UNL     1     -34.345   2.334   8.655  1.00  0.00    -0.194 OA
BRANCH   2   5
ATOM      5  C   UNL     1     -33.704   4.782   8.070  1.00  0.00    +0.094 A 
ATOM      6  C   UNL     1     -32.950   6.627   6.116  1.00  0.00    -0.051 A 
ATOM      7  C   UNL     1     -32.260   6.567   7.335  1.00  0.00    +0.005 A 
ATOM      8  C   UNL     1     -34.009   5.740   5.880  1.00  0.00    +0.005 A 
ATOM      9  C   UNL     1     -32.637   5.648   8.316  1.00  0.00    +0.023 A 
ATOM     10  C   UNL     1     -34.392   4.819   6.856  1.00  0.00    +0.023 A 
ATOM     11  C   UNL     1     -32.523   7.595   5.050  1.00  0.00    +0.044 C 
ENDBRANCH   2   5
ENDBRANCH   1   2
BRANCH   1  12
ATOM     12  C   UNL     1     -35.628   5.181  10.791  1.00  0.00    +0.184 C 
BRANCH  12  13
ATOM     13  C   UNL     1     -37.059   5.687  10.926  1.00  0.00    +0.046 C 
BRANCH  13  14
ATOM     14  C   UNL     1     -37.727   5.973   9.590  1.00  0.00    +0.112 C 
ATOM     15 Cl   UNL     1     -39.058   4.843   9.258  1.00  0.00    -0.127 Cl
ENDBRANCH  13  14
ENDBRANCH  12  13
ENDBRANCH   1  12
TORSDOF 5
ENDMDL
MODEL 7
REMARK VINA RESULT:    -6.028      7.188      8.656
REMARK INTER + INTRA:          -8.200
REMARK INTER:                  -7.704
REMARK INTRA:                  -0.496
REMARK UNBOUND:                -0.409
REMARK SMILES Cc1ccc(S(=O)(=O)OCCCCl)cc1
REMARK SMILES IDX 9 1 6 2 7 3 8 4 5 5 2 6 3 7 15 8 4 9 14 10 1 11 10 12 11 13
REMARK SMILES IDX 12 14 13 15
REMARK H PARENT
ROOT
ATOM      1  O   UNL     1     -26.076   1.048  11.950  1.00  0.00    -0.266 OA
ENDROOT
BRANCH   1   2
ATOM      2  S   UNL     1     -27.381   1.999  11.728  1.00  0.00    +0.296 S 
ATOM      3  O   UNL     1     -28.403   1.190  11.094  1.00  0.00    -0.194 OA
ATOM      4  O   UNL     1     -27.641   2.713  12.961  1.00  0.00    -0.194 OA
BRANCH   2   5
ATOM      5  C   UNL     1     -26.823   3.200  10.545  1.00  0.00    +0.094 A 
ATOM      6  C   UNL     1     -25.912   5.077   8.691  1.00  0.00    -0.051 A 
ATOM      7  C   UNL     1     -25.123   4.739   9.799  1.00  0.00    +0.005 A 
ATOM      8  C   UNL     1     -27.152   4.450   8.511  1.00  0.00    +0.005 A 
ATOM      9  C   UNL     1     -25.577   3.803  10.731  1.00  0.00    +0.023 A 
ATOM     10  C   UNL     1     -27.614   3.514   9.439  1.00  0.00    +0.023 A 
ATOM     11  C   UNL     1     -25.407   6.059   7.674  1.00  0.00    +0.044 C 
ENDBRANCH   2   5
ENDBRANCH   1   2
BRANCH   1  12
ATOM     12  C   UNL     1     -25.838   0.038  10.980  1.00  0.00    +0.184 C 
BRANCH  12  13
ATOM     13  C   UNL     1     -24.508   0.339  10.299  1.00  0.00    +0.046 C 
BRANCH  13  14
ATOM     14  C   UNL     1     -23.418   0.771  11.268  1.00  0.00    +0.112 C 
ATOM     15 Cl   UNL     1     -21.974   1.367  10.420  1.00  0.00    -0.127 Cl
ENDBRANCH  13  14
ENDBRANCH  12  13
ENDBRANCH   1  12
TORSDOF 5
ENDMDL
MODEL 8
REMARK VINA RESULT:    -5.974      6.572      8.834
REMARK INTER + INTRA:          -8.129
REMARK INTER:                  -7.876
REMARK INTRA:                  -0.253
REMARK UNBOUND:                -0.409
REMARK SMILES Cc1ccc(S(=O)(=O)OCCCCl)cc1
REMARK SMILES IDX 9 1 6 2 7 3 8 4 5 5 2 6 3 7 15 8 4 9 14 10 1 11 10 12 11 13
REMARK SMILES IDX 12 14 13 15
REMARK H PARENT
ROOT
ATOM      1  O   UNL     1     -26.328   3.935   9.862  1.00  0.00    -0.266 OA
ENDROOT
BRANCH   1   2
ATOM      2  S   UNL     1     -26.039   2.352  10.122  1.00  0.00    +0.296 S 
ATOM      3  O   UNL     1     -26.185   1.670   8.851  1.00  0.00    -0.194 OA
ATOM      4  O   UNL     1     -24.828   2.231  10.907  1.00  0.00    -0.194 OA
BRANCH   2   5
ATOM      5  C   UNL     1     -27.384   1.850  11.167  1.00  0.00    +0.094 A 
ATOM      6  C   UNL     1     -29.493   1.091  12.831  1.00  0.00    -0.051 A 
ATOM      7  C   UNL     1     -28.394   1.786  13.355  1.00  0.00    +0.005 A 
ATOM      8  C   UNL     1     -29.533   0.798  11.461  1.00  0.00    +0.005 A 
ATOM      9  C   UNL     1     -27.336   2.164  12.527  1.00  0.00    +0.023 A 
ATOM     10  C   UNL     1     -28.478   1.172  10.626  1.00  0.00    +0.023 A 
ATOM     11  C   UNL     1     -30.644   0.714  13.717  1.00  0.00    +0.044 C 
ENDBRANCH   2   5
ENDBRANCH   1   2
BRANCH   1  12
ATOM     12  C   UNL     1     -27.233   4.265   8.818  1.00  0.00    +0.184 C 
BRANCH  12  13
ATOM     13  C   UNL     1     -26.817   5.612   8.239  1.00  0.00    +0.046 C 
BRANCH  13  14
ATOM     14  C   UNL     1     -25.375   5.641   7.754  1.00  0.00    +0.112 C 
ATOM     15 Cl   UNL     1     -24.981   7.169   6.937  1.00  0.00    -0.127 Cl
ENDBRANCH  13  14
ENDBRANCH  12  13
ENDBRANCH   1  12
TORSDOF 5
ENDMDL
MODEL 9
REMARK VINA RESULT:    -5.963      8.344      9.829
REMARK INTER + INTRA:          -8.116
REMARK INTER:                  -7.401
REMARK INTRA:                  -0.714
REMARK UNBOUND:                -0.409
REMARK SMILES Cc1ccc(S(=O)(=O)OCCCCl)cc1
REMARK SMILES IDX 9 1 6 2 7 3 8 4 5 5 2 6 3 7 15 8 4 9 14 10 1 11 10 12 11 13
REMARK SMILES IDX 12 14 13 15
REMARK H PARENT
ROOT
ATOM      1  O   UNL     1     -24.578   0.616  10.327  1.00  0.00    -0.266 OA
ENDROOT
BRANCH   1   2
ATOM      2  S   UNL     1     -25.989   0.431   9.530  1.00  0.00    +0.296 S 
ATOM      3  O   UNL     1     -26.145   1.577   8.656  1.00  0.00    -0.194 OA
ATOM      4  O   UNL     1     -26.051  -0.922   9.018  1.00  0.00    -0.194 OA
BRANCH   2   5
ATOM      5  C   UNL     1     -27.209   0.554  10.814  1.00  0.00    +0.094 A 
ATOM      6  C   UNL     1     -29.102   0.755  12.856  1.00  0.00    -0.051 A 
ATOM      7  C   UNL     1     -27.802   0.313  13.139  1.00  0.00    +0.005 A 
ATOM      8  C   UNL     1     -29.437   1.113  11.543  1.00  0.00    +0.005 A 
ATOM      9  C   UNL     1     -26.854   0.208  12.120  1.00  0.00    +0.023 A 
ATOM     10  C   UNL     1     -28.495   1.010  10.518  1.00  0.00    +0.023 A 
ATOM     11  C   UNL     1     -30.110   0.898  13.959  1.00  0.00    +0.044 C 
ENDBRANCH   2   5
ENDBRANCH   1   2
BRANCH   1  12
ATOM     12  C   UNL     1     -23.745   1.695   9.927  1.00  0.00    +0.184 C 
BRANCH  12  13
ATOM     13  C   UNL     1     -23.705   2.708  11.065  1.00  0.00    +0.046 C 
BRANCH  13  14
ATOM     14  C   UNL     1     -24.675   3.865  10.879  1.00  0.00    +0.112 C 
ATOM     15 Cl   UNL     1     -26.034   3.782  12.021  1.00  0.00    -0.127 Cl
ENDBRANCH  13  14
ENDBRANCH  12  13
ENDBRANCH   1  12
TORSDOF 5
ENDMDL
