REMARK SMILES CC[C@H](C(=O)OC)C(=O)c1ccccc1
REMARK SMILES IDX 4 1 5 2 3 3 2 4 1 5 8 6 9 7 10 8 11 9 15 10 12 11 14 12
REMARK SMILES IDX 13 13 6 14 7 15
REMARK H PARENT
ROOT
ATOM      1  C   UNL     1       1.449  -0.689  -0.377  1.00  0.00    +0.316 C 
ATOM      2  O   UNL     1       1.128  -1.410  -1.310  1.00  0.00    -0.251 OA
ENDROOT
BRANCH   1   3
ATOM      3  C   UNL     1       0.938   0.715  -0.138  1.00  0.00    +0.170 C 
BRANCH   3   4
ATOM      4  C   UNL     1       1.977   1.704  -0.695  1.00  0.00    +0.020 C 
ATOM      5  C   UNL     1       1.829   3.100  -0.104  1.00  0.00    +0.005 C 
ENDBRANCH   3   4
BRANCH   3   6
ATOM      6  C   UNL     1      -0.445   0.916  -0.749  1.00  0.00    +0.177 C 
ATOM      7  O   UNL     1      -0.667   1.775  -1.603  1.00  0.00    -0.293 OA
BRANCH   6   8
ATOM      8  C   UNL     1      -1.588   0.071  -0.278  1.00  0.00    +0.018 A 
ATOM      9  C   UNL     1      -2.741   0.018  -1.075  1.00  0.00    +0.012 A 
ATOM     10  C   UNL     1      -1.555  -0.646   0.925  1.00  0.00    +0.012 A 
ATOM     11  C   UNL     1      -3.839  -0.750  -0.682  1.00  0.00    +0.001 A 
ATOM     12  C   UNL     1      -2.657  -1.414   1.314  1.00  0.00    +0.001 A 
ATOM     13  C   UNL     1      -3.795  -1.467   0.511  1.00  0.00    +0.000 A 
ENDBRANCH   6   8
ENDBRANCH   3   6
ENDBRANCH   1   3
BRANCH   1  14
ATOM     14  O   UNL     1       2.328  -1.036   0.608  1.00  0.00    -0.468 OA
ATOM     15  C   UNL     1       2.882  -2.345   0.457  1.00  0.00    +0.282 C 
ENDBRANCH   1  14
TORSDOF 5
