REMARK SMILES c1ccc(NNc2ccc3ccccc3n2)cc1
REMARK SMILES IDX 5 1 6 3 7 5 16 6 8 7 15 8 9 9 14 10 10 11 13 12 11 13 12 14
REMARK SMILES IDX 4 15 3 16 17 17 2 18 18 19 1 20
REMARK H PARENT 5 2 6 4
ROOT
ATOM      1  N   UNL     1       1.704   0.603  -0.010  1.00  0.00    -0.300 N 
ATOM      2  H   UNL     1       1.648   1.608   0.159  1.00  0.00    +0.188 HD
ENDROOT
BRANCH   1   3
ATOM      3  N   UNL     1       0.628  -0.114   0.449  1.00  0.00    -0.284 N 
ATOM      4  H   UNL     1       0.537  -0.212   1.462  1.00  0.00    +0.189 HD
BRANCH   3   5
ATOM      5  C   UNL     1      -0.665   0.034  -0.082  1.00  0.00    +0.145 A 
ATOM      6  N   UNL     1      -1.693  -0.118   0.779  1.00  0.00    -0.229 NA
ATOM      7  C   UNL     1      -0.859   0.302  -1.431  1.00  0.00    +0.049 A 
ATOM      8  C   UNL     1      -2.950   0.004   0.314  1.00  0.00    +0.073 A 
ATOM      9  C   UNL     1      -2.156   0.429  -1.915  1.00  0.00    +0.014 A 
ATOM     10  C   UNL     1      -4.018  -0.147   1.188  1.00  0.00    +0.029 A 
ATOM     11  C   UNL     1      -3.235   0.282  -1.039  1.00  0.00    +0.000 A 
ATOM     12  C   UNL     1      -5.344  -0.029   0.759  1.00  0.00    +0.002 A 
ATOM     13  C   UNL     1      -4.566   0.400  -1.476  1.00  0.00    +0.010 A 
ATOM     14  C   UNL     1      -5.618   0.245  -0.577  1.00  0.00    +0.001 A 
ENDBRANCH   3   5
ENDBRANCH   1   3
BRANCH   1  15
ATOM     15  C   UNL     1       3.026   0.118   0.114  1.00  0.00    +0.054 A 
ATOM     16  C   UNL     1       3.300  -1.240   0.321  1.00  0.00    +0.027 A 
ATOM     17  C   UNL     1       4.104   0.991  -0.091  1.00  0.00    +0.027 A 
ATOM     18  C   UNL     1       4.616  -1.705   0.380  1.00  0.00    +0.002 A 
ATOM     19  C   UNL     1       5.421   0.529  -0.031  1.00  0.00    +0.002 A 
ATOM     20  C   UNL     1       5.677  -0.819   0.210  1.00  0.00    +0.000 A 
ENDBRANCH   1  15
TORSDOF 3
