REMARK SMILES O=C(O)[C@H](O)[C@H](O)[C@@H](O)CO
REMARK SMILES IDX 6 1 8 2 10 3 11 4 9 6 7 8 4 10 5 11 2 13 1 14 3 15
REMARK H PARENT 11 5 9 7 7 9 5 12 3 16
ROOT
ATOM      1  C   UNL     1       0.139  -0.809   0.653  1.00  0.00    +0.185 C 
ENDROOT
BRANCH   1   2
ATOM      2  C   UNL     1      -1.081   0.152   0.621  1.00  0.00    +0.171 C 
BRANCH   2   3
ATOM      3  C   UNL     1      -1.740   0.334  -0.754  1.00  0.00    +0.190 C 
BRANCH   3   4
ATOM      4  O   UNL     1      -2.229  -0.916  -1.237  1.00  0.00    -0.394 OA
ATOM      5  H   UNL     1      -2.716  -0.728  -2.062  1.00  0.00    +0.210 HD
ENDBRANCH   3   4
ENDBRANCH   2   3
BRANCH   2   6
ATOM      6  O   UNL     1      -0.789   1.415   1.217  1.00  0.00    -0.388 OA
ATOM      7  H   UNL     1      -0.236   1.927   0.591  1.00  0.00    +0.211 HD
ENDBRANCH   2   6
ENDBRANCH   1   2
BRANCH   1   8
ATOM      8  O   UNL     1       0.078  -1.854  -0.335  1.00  0.00    -0.387 OA
ATOM      9  H   UNL     1      -0.864  -1.966  -0.590  1.00  0.00    +0.211 HD
ENDBRANCH   1   8
BRANCH   1  10
ATOM     10  C   UNL     1       1.533  -0.165   0.598  1.00  0.00    +0.255 C 
BRANCH  10  11
ATOM     11  O   UNL     1       2.514  -1.209   0.696  1.00  0.00    -0.379 OA
ATOM     12  H   UNL     1       2.256  -1.856   0.007  1.00  0.00    +0.211 HD
ENDBRANCH  10  11
BRANCH  10  13
ATOM     13  C   UNL     1       1.759   0.637  -0.681  1.00  0.00    +0.335 C 
ATOM     14  O   UNL     1       2.434   0.322  -1.648  1.00  0.00    -0.249 OA
BRANCH  13  15
ATOM     15  O   UNL     1       1.139   1.842  -0.671  1.00  0.00    -0.479 OA
ATOM     16  H   UNL     1       1.471   2.250  -1.504  1.00  0.00    +0.296 HD
ENDBRANCH  13  15
ENDBRANCH  10  13
ENDBRANCH   1  10
TORSDOF 9
