REMARK SMILES CN(C)CCCN
REMARK SMILES IDX 5 1 4 2 2 3 1 4 3 5 6 6 7 7
REMARK H PARENT 7 8 7 9
ROOT
ATOM      1  C   UNL     1      -0.806  -0.949  -0.245  1.00  0.00    +0.030 C 
ENDROOT
BRANCH   1   2
ATOM      2  C   UNL     1       0.101   0.253  -0.542  1.00  0.00    +0.085 C 
BRANCH   2   3
ATOM      3  N   UNL     1       1.530  -0.039  -0.308  1.00  0.00    -0.309 NA
ATOM      4  C   UNL     1       2.352   1.045  -0.854  1.00  0.00    +0.104 C 
ATOM      5  C   UNL     1       1.826  -0.208   1.116  1.00  0.00    +0.104 C 
ENDBRANCH   2   3
ENDBRANCH   1   2
BRANCH   1   6
ATOM      6  C   UNL     1      -2.253  -0.715  -0.683  1.00  0.00    +0.079 C 
BRANCH   6   7
ATOM      7  N   UNL     1      -2.888   0.362   0.070  1.00  0.00    -0.330 NA
ATOM      8  H   UNL     1      -2.913   0.117   1.060  1.00  0.00    +0.118 HD
ATOM      9  H   UNL     1      -3.861   0.447  -0.223  1.00  0.00    +0.118 HD
ENDBRANCH   6   7
ENDBRANCH   1   6
TORSDOF 4
