REMARK SMILES N#CSCC(=O)c1ccccc1
REMARK SMILES IDX 6 1 5 2 4 3 3 4 2 5 1 6 7 7 8 8 12 9 9 10 11 11 10 12
REMARK H PARENT
ROOT
ATOM      1  O   UNL     1       0.845  -1.827  -1.540  1.00  0.00    -0.293 OA
ATOM      2  C   UNL     1       0.909  -1.151  -0.513  1.00  0.00    +0.173 C 
ENDROOT
BRANCH   2   3
ATOM      3  C   UNL     1       2.147  -1.141   0.365  1.00  0.00    +0.167 C 
BRANCH   3   4
ATOM      4  S   UNL     1       3.635  -0.762  -0.603  1.00  0.00    -0.038 SA
ATOM      5  C   UNL     1       3.287   0.854  -0.941  1.00  0.00    +0.133 C 
ATOM      6  N   UNL     1       3.013   1.967  -1.117  1.00  0.00    -0.185 NA
ENDBRANCH   3   4
ENDBRANCH   2   3
BRANCH   2   7
ATOM      7  C   UNL     1      -0.294  -0.382  -0.087  1.00  0.00    +0.018 A 
ATOM      8  C   UNL     1      -1.553  -0.878  -0.449  1.00  0.00    +0.012 A 
ATOM      9  C   UNL     1      -0.205   0.816   0.632  1.00  0.00    +0.012 A 
ATOM     10  C   UNL     1      -2.713  -0.199  -0.074  1.00  0.00    +0.001 A 
ATOM     11  C   UNL     1      -1.370   1.494   1.004  1.00  0.00    +0.001 A 
ATOM     12  C   UNL     1      -2.620   0.985   0.656  1.00  0.00    +0.000 A 
ENDBRANCH   2   7
TORSDOF 3
