REMARK SMILES NCCCN1CCOCC1
REMARK SMILES IDX 2 1 1 2 3 5 4 6 5 7 6 8 10 9 7 10 9 11 8 12
REMARK H PARENT 1 3 1 4
ROOT
ATOM      1  C   UNL     1       2.552   0.003  -0.751  1.00  0.00    +0.079 C 
ENDROOT
BRANCH   1   2
ATOM      2  N   UNL     1       3.816   0.738  -0.727  1.00  0.00    -0.330 NA
ATOM      3  H   UNL     1       4.432   0.340  -0.019  1.00  0.00    +0.118 HD
ATOM      4  H   UNL     1       3.643   1.702  -0.442  1.00  0.00    +0.118 HD
ENDBRANCH   1   2
BRANCH   1   5
ATOM      5  C   UNL     1       1.884   0.016   0.625  1.00  0.00    +0.031 C 
BRANCH   5   6
ATOM      6  C   UNL     1       0.592  -0.813   0.664  1.00  0.00    +0.086 C 
BRANCH   6   7
ATOM      7  N   UNL     1      -0.451  -0.357  -0.266  1.00  0.00    -0.299 NA
ATOM      8  C   UNL     1      -0.913   1.016   0.041  1.00  0.00    +0.113 C 
ATOM      9  C   UNL     1      -1.598  -1.292  -0.308  1.00  0.00    +0.113 C 
ATOM     10  C   UNL     1      -2.333   1.278  -0.483  1.00  0.00    +0.175 C 
ATOM     11  C   UNL     1      -2.793  -0.835   0.542  1.00  0.00    +0.175 C 
ATOM     12  O   UNL     1      -3.314   0.441   0.146  1.00  0.00    -0.379 OA
ENDBRANCH   6   7
ENDBRANCH   5   6
ENDBRANCH   1   5
TORSDOF 4
