MODEL 1
REMARK VINA RESULT:    -7.253      0.000      0.000
REMARK INTER + INTRA:          -8.272
REMARK INTER:                  -8.313
REMARK INTRA:                   0.040
REMARK UNBOUND:                 0.040
REMARK SMILES N#CC(=Cc1ccccc1)C(=O)O
REMARK SMILES IDX 11 1 12 2 13 3 3 5 4 6 2 7 1 8 5 9 6 10 10 11 7 12 9 13 8 14
REMARK H PARENT 13 4
ROOT
ATOM      1  C   UNL     1     -26.411   9.112   5.470  1.00  0.00    +0.346 C 
ATOM      2  O   UNL     1     -26.834   9.068   4.328  1.00  0.00    -0.246 OA
ENDROOT
BRANCH   1   3
ATOM      3  O   UNL     1     -25.432   9.964   5.822  1.00  0.00    -0.477 OA
ATOM      4  H   UNL     1     -25.859  10.593   6.441  1.00  0.00    +0.297 HD
ENDBRANCH   1   3
BRANCH   1   5
ATOM      5  C   UNL     1     -26.837   8.240   6.577  1.00  0.00    +0.137 C 
ATOM      6  C   UNL     1     -27.994   8.406   7.249  1.00  0.00    +0.035 C 
ATOM      7  C   UNL     1     -25.976   7.155   6.893  1.00  0.00    +0.107 C 
ATOM      8  N   UNL     1     -25.293   6.264   7.190  1.00  0.00    -0.192 NA
BRANCH   6   9
ATOM      9  C   UNL     1     -29.021   9.414   6.974  1.00  0.00    -0.024 A 
ATOM     10  C   UNL     1     -30.347   9.013   6.777  1.00  0.00    +0.008 A 
ATOM     11  C   UNL     1     -28.693  10.772   6.870  1.00  0.00    +0.008 A 
ATOM     12  C   UNL     1     -31.335   9.959   6.498  1.00  0.00    +0.001 A 
ATOM     13  C   UNL     1     -29.683  11.717   6.590  1.00  0.00    +0.001 A 
ATOM     14  C   UNL     1     -31.003  11.309   6.405  1.00  0.00    +0.000 A 
ENDBRANCH   6   9
ENDBRANCH   1   5
TORSDOF 3
ENDMDL
MODEL 2
REMARK VINA RESULT:    -7.072      3.811      5.048
REMARK INTER + INTRA:          -8.065
REMARK INTER:                  -7.754
REMARK INTRA:                  -0.311
REMARK UNBOUND:                 0.040
REMARK SMILES N#CC(=Cc1ccccc1)C(=O)O
REMARK SMILES IDX 11 1 12 2 13 3 3 5 4 6 2 7 1 8 5 9 6 10 10 11 7 12 9 13 8 14
REMARK H PARENT 13 4
ROOT
ATOM      1  C   UNL     1     -31.467  10.343   7.262  1.00  0.00    +0.346 C 
ATOM      2  O   UNL     1     -32.126  10.381   8.286  1.00  0.00    -0.246 OA
ENDROOT
BRANCH   1   3
ATOM      3  O   UNL     1     -31.742  11.151   6.222  1.00  0.00    -0.477 OA
ATOM      4  H   UNL     1     -32.539  10.760   5.807  1.00  0.00    +0.297 HD
ENDBRANCH   1   3
BRANCH   1   5
ATOM      5  C   UNL     1     -30.361   9.411   6.987  1.00  0.00    +0.137 C 
ATOM      6  C   UNL     1     -30.546   8.116   6.664  1.00  0.00    +0.035 C 
ATOM      7  C   UNL     1     -29.050   9.956   7.034  1.00  0.00    +0.107 C 
ATOM      8  N   UNL     1     -27.962  10.360   7.075  1.00  0.00    -0.192 NA
BRANCH   6   9
ATOM      9  C   UNL     1     -31.835   7.441   6.485  1.00  0.00    -0.024 A 
ATOM     10  C   UNL     1     -32.468   6.857   7.587  1.00  0.00    +0.008 A 
ATOM     11  C   UNL     1     -32.428   7.340   5.220  1.00  0.00    +0.008 A 
ATOM     12  C   UNL     1     -33.687   6.197   7.431  1.00  0.00    +0.001 A 
ATOM     13  C   UNL     1     -33.648   6.678   5.065  1.00  0.00    +0.001 A 
ATOM     14  C   UNL     1     -34.277   6.108   6.171  1.00  0.00    +0.000 A 
ENDBRANCH   6   9
ENDBRANCH   1   5
TORSDOF 3
ENDMDL
MODEL 3
REMARK VINA RESULT:    -6.780      3.417      4.405
REMARK INTER + INTRA:          -7.730
REMARK INTER:                  -7.763
REMARK INTRA:                   0.032
REMARK UNBOUND:                 0.040
REMARK SMILES N#CC(=Cc1ccccc1)C(=O)O
REMARK SMILES IDX 11 1 12 2 13 3 3 5 4 6 2 7 1 8 5 9 6 10 10 11 7 12 9 13 8 14
REMARK H PARENT 13 4
ROOT
ATOM      1  C   UNL     1     -32.167   8.250   6.681  1.00  0.00    +0.346 C 
ATOM      2  O   UNL     1     -32.217   8.261   5.464  1.00  0.00    -0.246 OA
ENDROOT
BRANCH   1   3
ATOM      3  O   UNL     1     -33.142   8.798   7.428  1.00  0.00    -0.477 OA
ATOM      4  H   UNL     1     -33.966   8.631   6.925  1.00  0.00    +0.297 HD
ENDBRANCH   1   3
BRANCH   1   5
ATOM      5  C   UNL     1     -31.057   7.718   7.489  1.00  0.00    +0.137 C 
ATOM      6  C   UNL     1     -29.852   8.315   7.577  1.00  0.00    +0.035 C 
ATOM      7  C   UNL     1     -31.325   6.538   8.233  1.00  0.00    +0.107 C 
ATOM      8  N   UNL     1     -31.501   5.567   8.844  1.00  0.00    -0.192 NA
BRANCH   6   9
ATOM      9  C   UNL     1     -29.462   9.581   6.949  1.00  0.00    -0.024 A 
ATOM     10  C   UNL     1     -28.275   9.648   6.210  1.00  0.00    +0.008 A 
ATOM     11  C   UNL     1     -30.239  10.735   7.103  1.00  0.00    +0.008 A 
ATOM     12  C   UNL     1     -27.880  10.849   5.619  1.00  0.00    +0.001 A 
ATOM     13  C   UNL     1     -29.842  11.937   6.512  1.00  0.00    +0.001 A 
ATOM     14  C   UNL     1     -28.664  11.992   5.769  1.00  0.00    +0.000 A 
ENDBRANCH   6   9
ENDBRANCH   1   5
TORSDOF 3
ENDMDL
MODEL 4
REMARK VINA RESULT:    -6.702      4.543      5.762
REMARK INTER + INTRA:          -7.641
REMARK INTER:                  -7.316
REMARK INTRA:                  -0.325
REMARK UNBOUND:                 0.040
REMARK SMILES N#CC(=Cc1ccccc1)C(=O)O
REMARK SMILES IDX 11 1 12 2 13 3 3 5 4 6 2 7 1 8 5 9 6 10 10 11 7 12 9 13 8 14
REMARK H PARENT 13 4
ROOT
ATOM      1  C   UNL     1     -33.232   6.945   7.532  1.00  0.00    +0.346 C 
ATOM      2  O   UNL     1     -32.666   6.361   8.439  1.00  0.00    -0.246 OA
ENDROOT
BRANCH   1   3
ATOM      3  O   UNL     1     -34.323   7.699   7.755  1.00  0.00    -0.477 OA
ATOM      4  H   UNL     1     -34.660   7.921   6.863  1.00  0.00    +0.297 HD
ENDBRANCH   1   3
BRANCH   1   5
ATOM      5  C   UNL     1     -32.868   6.873   6.106  1.00  0.00    +0.137 C 
ATOM      6  C   UNL     1     -31.942   7.668   5.536  1.00  0.00    +0.035 C 
ATOM      7  C   UNL     1     -33.521   5.872   5.338  1.00  0.00    +0.107 C 
ATOM      8  N   UNL     1     -34.042   5.075   4.674  1.00  0.00    -0.192 NA
BRANCH   6   9
ATOM      9  C   UNL     1     -31.122   8.674   6.218  1.00  0.00    -0.024 A 
ATOM     10  C   UNL     1     -31.610   9.978   6.365  1.00  0.00    +0.008 A 
ATOM     11  C   UNL     1     -29.844   8.363   6.696  1.00  0.00    +0.008 A 
ATOM     12  C   UNL     1     -30.837  10.952   6.997  1.00  0.00    +0.001 A 
ATOM     13  C   UNL     1     -29.070   9.340   7.328  1.00  0.00    +0.001 A 
ATOM     14  C   UNL     1     -29.568  10.633   7.478  1.00  0.00    +0.000 A 
ENDBRANCH   6   9
ENDBRANCH   1   5
TORSDOF 3
ENDMDL
MODEL 5
REMARK VINA RESULT:    -6.578      7.181      8.602
REMARK INTER + INTRA:          -7.499
REMARK INTER:                  -7.195
REMARK INTRA:                  -0.303
REMARK UNBOUND:                 0.040
REMARK SMILES N#CC(=Cc1ccccc1)C(=O)O
REMARK SMILES IDX 11 1 12 2 13 3 3 5 4 6 2 7 1 8 5 9 6 10 10 11 7 12 9 13 8 14
REMARK H PARENT 13 4
ROOT
ATOM      1  C   UNL     1     -34.540   3.234   7.847  1.00  0.00    +0.346 C 
ATOM      2  O   UNL     1     -33.613   2.757   8.477  1.00  0.00    -0.246 OA
ENDROOT
BRANCH   1   3
ATOM      3  O   UNL     1     -34.827   2.820   6.600  1.00  0.00    -0.477 OA
ATOM      4  H   UNL     1     -35.284   3.580   6.184  1.00  0.00    +0.297 HD
ENDBRANCH   1   3
BRANCH   1   5
ATOM      5  C   UNL     1     -35.413   4.330   8.301  1.00  0.00    +0.137 C 
ATOM      6  C   UNL     1     -35.209   5.622   7.979  1.00  0.00    +0.035 C 
ATOM      7  C   UNL     1     -36.540   3.957   9.082  1.00  0.00    +0.107 C 
ATOM      8  N   UNL     1     -37.465   3.695   9.733  1.00  0.00    -0.192 NA
BRANCH   6   9
ATOM      9  C   UNL     1     -34.151   6.143   7.108  1.00  0.00    -0.024 A 
ATOM     10  C   UNL     1     -32.947   6.581   7.671  1.00  0.00    +0.008 A 
ATOM     11  C   UNL     1     -34.338   6.244   5.724  1.00  0.00    +0.008 A 
ATOM     12  C   UNL     1     -31.936   7.095   6.858  1.00  0.00    +0.001 A 
ATOM     13  C   UNL     1     -33.325   6.760   4.912  1.00  0.00    +0.001 A 
ATOM     14  C   UNL     1     -32.125   7.184   5.480  1.00  0.00    +0.000 A 
ENDBRANCH   6   9
ENDBRANCH   1   5
TORSDOF 3
ENDMDL
MODEL 6
REMARK VINA RESULT:    -6.315      8.002      9.193
REMARK INTER + INTRA:          -7.198
REMARK INTER:                  -6.878
REMARK INTRA:                  -0.320
REMARK UNBOUND:                 0.040
REMARK SMILES N#CC(=Cc1ccccc1)C(=O)O
REMARK SMILES IDX 11 1 12 2 13 3 3 5 4 6 2 7 1 8 5 9 6 10 10 11 7 12 9 13 8 14
REMARK H PARENT 13 4
ROOT
ATOM      1  C   UNL     1     -34.354   5.545   8.107  1.00  0.00    +0.346 C 
ATOM      2  O   UNL     1     -34.608   4.761   7.209  1.00  0.00    -0.246 OA
ENDROOT
BRANCH   1   3
ATOM      3  O   UNL     1     -34.763   6.826   8.055  1.00  0.00    -0.477 OA
ATOM      4  H   UNL     1     -35.694   6.803   8.360  1.00  0.00    +0.297 HD
ENDBRANCH   1   3
BRANCH   1   5
ATOM      5  C   UNL     1     -33.546   5.250   9.302  1.00  0.00    +0.137 C 
ATOM      6  C   UNL     1     -34.075   4.831  10.469  1.00  0.00    +0.035 C 
ATOM      7  C   UNL     1     -32.139   5.386   9.163  1.00  0.00    +0.107 C 
ATOM      8  N   UNL     1     -30.986   5.498   9.092  1.00  0.00    -0.192 NA
BRANCH   6   9
ATOM      9  C   UNL     1     -35.490   4.553  10.732  1.00  0.00    -0.024 A 
ATOM     10  C   UNL     1     -35.979   3.252  10.573  1.00  0.00    +0.008 A 
ATOM     11  C   UNL     1     -36.369   5.576  11.107  1.00  0.00    +0.008 A 
ATOM     12  C   UNL     1     -37.328   2.974  10.803  1.00  0.00    +0.001 A 
ATOM     13  C   UNL     1     -37.719   5.296  11.336  1.00  0.00    +0.001 A 
ATOM     14  C   UNL     1     -38.196   3.995  11.185  1.00  0.00    +0.000 A 
ENDBRANCH   6   9
ENDBRANCH   1   5
TORSDOF 3
ENDMDL
MODEL 7
REMARK VINA RESULT:    -6.276      8.833      9.777
REMARK INTER + INTRA:          -7.153
REMARK INTER:                  -6.885
REMARK INTRA:                  -0.268
REMARK UNBOUND:                 0.040
REMARK SMILES N#CC(=Cc1ccccc1)C(=O)O
REMARK SMILES IDX 11 1 12 2 13 3 3 5 4 6 2 7 1 8 5 9 6 10 10 11 7 12 9 13 8 14
REMARK H PARENT 13 4
ROOT
ATOM      1  C   UNL     1     -34.365   3.503   8.227  1.00  0.00    +0.346 C 
ATOM      2  O   UNL     1     -34.435   4.660   7.851  1.00  0.00    -0.246 OA
ENDROOT
BRANCH   1   3
ATOM      3  O   UNL     1     -34.818   2.490   7.466  1.00  0.00    -0.477 OA
ATOM      4  H   UNL     1     -35.792   2.517   7.568  1.00  0.00    +0.297 HD
ENDBRANCH   1   3
BRANCH   1   5
ATOM      5  C   UNL     1     -33.858   3.055   9.535  1.00  0.00    +0.137 C 
ATOM      6  C   UNL     1     -34.478   3.322  10.701  1.00  0.00    +0.035 C 
ATOM      7  C   UNL     1     -32.676   2.267   9.517  1.00  0.00    +0.107 C 
ATOM      8  N   UNL     1     -31.705   1.632   9.547  1.00  0.00    -0.192 NA
BRANCH   6   9
ATOM      9  C   UNL     1     -35.748   4.035  10.866  1.00  0.00    -0.024 A 
ATOM     10  C   UNL     1     -36.954   3.340  10.722  1.00  0.00    +0.008 A 
ATOM     11  C   UNL     1     -35.776   5.409  11.132  1.00  0.00    +0.008 A 
ATOM     12  C   UNL     1     -38.172   4.007  10.860  1.00  0.00    +0.001 A 
ATOM     13  C   UNL     1     -36.996   6.076  11.269  1.00  0.00    +0.001 A 
ATOM     14  C   UNL     1     -38.193   5.374  11.134  1.00  0.00    +0.000 A 
ENDBRANCH   6   9
ENDBRANCH   1   5
TORSDOF 3
ENDMDL
MODEL 8
REMARK VINA RESULT:    -6.078      6.508      7.869
REMARK INTER + INTRA:          -6.926
REMARK INTER:                  -6.679
REMARK INTRA:                  -0.248
REMARK UNBOUND:                 0.040
REMARK SMILES N#CC(=Cc1ccccc1)C(=O)O
REMARK SMILES IDX 11 1 12 2 13 3 3 5 4 6 2 7 1 8 5 9 6 10 10 11 7 12 9 13 8 14
REMARK H PARENT 13 4
ROOT
ATOM      1  C   UNL     1     -33.956   6.250   7.370  1.00  0.00    +0.346 C 
ATOM      2  O   UNL     1     -34.389   5.285   6.765  1.00  0.00    -0.246 OA
ENDROOT
BRANCH   1   3
ATOM      3  O   UNL     1     -34.751   7.282   7.705  1.00  0.00    -0.477 OA
ATOM      4  H   UNL     1     -35.102   7.049   8.589  1.00  0.00    +0.297 HD
ENDBRANCH   1   3
BRANCH   1   5
ATOM      5  C   UNL     1     -32.550   6.461   7.756  1.00  0.00    +0.137 C 
ATOM      6  C   UNL     1     -31.959   5.819   8.783  1.00  0.00    +0.035 C 
ATOM      7  C   UNL     1     -31.804   7.364   6.953  1.00  0.00    +0.107 C 
ATOM      8  N   UNL     1     -31.163   8.105   6.328  1.00  0.00    -0.192 NA
BRANCH   6   9
ATOM      9  C   UNL     1     -32.571   4.795   9.635  1.00  0.00    -0.024 A 
ATOM     10  C   UNL     1     -32.264   3.447   9.422  1.00  0.00    +0.008 A 
ATOM     11  C   UNL     1     -33.485   5.141  10.638  1.00  0.00    +0.008 A 
ATOM     12  C   UNL     1     -32.850   2.458  10.214  1.00  0.00    +0.001 A 
ATOM     13  C   UNL     1     -34.072   4.150  11.429  1.00  0.00    +0.001 A 
ATOM     14  C   UNL     1     -33.753   2.810  11.216  1.00  0.00    +0.000 A 
ENDBRANCH   6   9
ENDBRANCH   1   5
TORSDOF 3
ENDMDL
MODEL 9
REMARK VINA RESULT:    -5.941      9.421     10.923
REMARK INTER + INTRA:          -6.769
REMARK INTER:                  -6.439
REMARK INTRA:                  -0.331
REMARK UNBOUND:                 0.040
REMARK SMILES N#CC(=Cc1ccccc1)C(=O)O
REMARK SMILES IDX 11 1 12 2 13 3 3 5 4 6 2 7 1 8 5 9 6 10 10 11 7 12 9 13 8 14
REMARK H PARENT 13 4
ROOT
ATOM      1  C   UNL     1     -36.599   3.617   9.969  1.00  0.00    +0.346 C 
ATOM      2  O   UNL     1     -37.187   2.683  10.486  1.00  0.00    -0.246 OA
ENDROOT
BRANCH   1   3
ATOM      3  O   UNL     1     -36.430   3.687   8.637  1.00  0.00    -0.477 OA
ATOM      4  H   UNL     1     -35.923   4.514   8.493  1.00  0.00    +0.297 HD
ENDBRANCH   1   3
BRANCH   1   5
ATOM      5  C   UNL     1     -35.955   4.729  10.688  1.00  0.00    +0.137 C 
ATOM      6  C   UNL     1     -34.694   4.674  11.161  1.00  0.00    +0.035 C 
ATOM      7  C   UNL     1     -36.721   5.916  10.832  1.00  0.00    +0.107 C 
ATOM      8  N   UNL     1     -37.320   6.899  10.982  1.00  0.00    -0.192 NA
BRANCH   6   9
ATOM      9  C   UNL     1     -33.755   3.559  11.004  1.00  0.00    -0.024 A 
ATOM     10  C   UNL     1     -32.886   3.538   9.908  1.00  0.00    +0.008 A 
ATOM     11  C   UNL     1     -33.736   2.496  11.915  1.00  0.00    +0.008 A 
ATOM     12  C   UNL     1     -31.997   2.476   9.735  1.00  0.00    +0.001 A 
ATOM     13  C   UNL     1     -32.846   1.434  11.740  1.00  0.00    +0.001 A 
ATOM     14  C   UNL     1     -31.977   1.426  10.651  1.00  0.00    +0.000 A 
ENDBRANCH   6   9
ENDBRANCH   1   5
TORSDOF 3
ENDMDL
