REMARK SMILES Cc1ccc2nc(C)ccc2c1
REMARK SMILES IDX 1 1 2 2 12 3 11 4 5 5 4 6 3 7 6 8 7 9 8 10 9 11 10 12
REMARK H PARENT
ROOT
ATOM      1  C   UNL     1      -3.874  -0.116   0.450  1.00  0.00    +0.044 C 
ATOM      2  C   UNL     1      -2.435   0.092   0.084  1.00  0.00    -0.050 A 
ATOM      3  C   UNL     1      -1.432  -0.691   0.665  1.00  0.00    +0.013 A 
ATOM      4  C   UNL     1      -0.078  -0.477   0.348  1.00  0.00    +0.000 A 
ATOM      5  C   UNL     1       0.290   0.540  -0.554  1.00  0.00    +0.070 A 
ATOM      6  C   UNL     1      -0.717   1.316  -1.109  1.00  0.00    +0.029 A 
ATOM      7  C   UNL     1      -2.065   1.109  -0.798  1.00  0.00    +0.005 A 
ATOM      8  N   UNL     1       1.572   0.781  -0.887  1.00  0.00    -0.253 NA
ATOM      9  C   UNL     1       2.541   0.015  -0.332  1.00  0.00    +0.038 A 
ATOM     10  C   UNL     1       3.957   0.311  -0.725  1.00  0.00    +0.067 C 
ATOM     11  C   UNL     1       2.268  -1.007   0.567  1.00  0.00    +0.024 A 
ATOM     12  C   UNL     1       0.943  -1.254   0.909  1.00  0.00    +0.012 A 
ENDROOT
TORSDOF 0
