REMARK SMILES NC(=O)NN=Cc1ccc([N+](=O)[O-])o1
REMARK SMILES IDX 7 1 8 2 9 3 10 4 14 5 6 6 5 7 4 8 1 9 2 10 3 11 11 15 12 16
REMARK SMILES IDX 13 17
REMARK H PARENT 1 12 1 13 4 14
ROOT
ATOM      1  C   UNL     1      -0.905   0.379  -0.045  1.00  0.00    +0.154 A 
ATOM      2  C   UNL     1      -1.462   1.538  -0.559  1.00  0.00    +0.060 A 
ATOM      3  C   UNL     1      -2.865   1.338  -0.609  1.00  0.00    +0.134 A 
ATOM      4  C   UNL     1      -3.067   0.070  -0.117  1.00  0.00    +0.433 A 
ATOM      5  O   UNL     1      -1.895  -0.527   0.230  1.00  0.00    -0.400 OA
ENDROOT
BRANCH   1   6
ATOM      6  C   UNL     1       0.454   0.002   0.230  1.00  0.00    +0.180 C 
ATOM      7  N   UNL     1       1.416   0.853   0.046  1.00  0.00    -0.176 NA
BRANCH   7   8
ATOM      8  N   UNL     1       2.699   0.417   0.292  1.00  0.00    -0.229 N 
ATOM      9  N   UNL     1       4.505  -0.964   0.161  1.00  0.00    -0.350 N 
ATOM     10  C   UNL     1       3.173  -0.821  -0.101  1.00  0.00    +0.332 C 
ATOM     11  O   UNL     1       2.536  -1.728  -0.617  1.00  0.00    -0.247 OA
ATOM     12  H   UNL     1       4.835  -0.571   1.031  1.00  0.00    +0.161 HD
ATOM     13  H   UNL     1       4.834  -1.905  -0.017  1.00  0.00    +0.161 HD
ATOM     14  H   UNL     1       3.386   1.159   0.213  1.00  0.00    +0.195 HD
ENDBRANCH   7   8
ENDBRANCH   1   6
BRANCH   4  15
ATOM     15  N   UNL     1      -4.258  -0.693   0.082  1.00  0.00    +0.102 N 
ATOM     16  O   UNL     1      -5.319  -0.148  -0.251  1.00  0.00    -0.256 OA
ATOM     17  O   UNL     1      -4.146  -1.824   0.571  1.00  0.00    -0.256 OA
ENDBRANCH   4  15
TORSDOF 3
