MODEL 1
REMARK VINA RESULT:    -7.153      0.000      0.000
REMARK INTER + INTRA:         -17.023
REMARK INTER:                 -15.515
REMARK INTRA:                  -1.508
REMARK UNBOUND:                -1.508
REMARK SMILES CC[C@@H](C)OC(=O)[C@@H](C)OC(=O)OCCOCCOC(=O)O[C@H](C)C(=O)O[C@@H](C)CC
REMARK SMILES IDX 16 1 15 2 14 3 13 4 11 5 12 6 10 7 8 8 9 9 6 10 7 11 5 12
REMARK SMILES IDX 3 13 4 14 2 15 1 16 17 17 18 18 19 19 20 20 21 21 22 22
REMARK SMILES IDX 23 23 24 24 25 25 26 26 27 27 28 28 29 29 30 30 31 31
REMARK H PARENT
ROOT
ATOM      1  O   UNL     1     -25.960   4.670  10.405  1.00  0.00    -0.374 OA
ENDROOT
BRANCH   1   2
ATOM      2  C   UNL     1     -26.665   4.194   9.258  1.00  0.00    +0.202 C 
BRANCH   2   3
ATOM      3  C   UNL     1     -26.524   5.087   8.024  1.00  0.00    +0.265 C 
BRANCH   3   4
ATOM      4  O   UNL     1     -26.390   6.462   8.409  1.00  0.00    -0.432 OA
BRANCH   4   5
ATOM      5  C   UNL     1     -27.432   7.263   8.082  1.00  0.00    +0.509 C 
ATOM      6  O   UNL     1     -28.615   6.974   8.160  1.00  0.00    -0.203 OA
BRANCH   5   7
ATOM      7  O   UNL     1     -26.934   8.448   7.649  1.00  0.00    -0.419 OA
BRANCH   7   8
ATOM      8  C   UNL     1     -26.462   8.426   6.300  1.00  0.00    +0.286 C 
ATOM      9  C   UNL     1     -24.940   8.379   6.355  1.00  0.00    +0.066 C 
BRANCH   8  10
ATOM     10  C   UNL     1     -26.879   9.628   5.444  1.00  0.00    +0.347 C 
ATOM     11  O   UNL     1     -26.735   9.679   4.229  1.00  0.00    -0.248 OA
BRANCH  10  12
ATOM     12  O   UNL     1     -27.364  10.641   6.218  1.00  0.00    -0.460 OA
BRANCH  12  13
ATOM     13  C   UNL     1     -28.672  11.138   5.877  1.00  0.00    +0.173 C 
ATOM     14  C   UNL     1     -28.502  12.590   5.446  1.00  0.00    +0.053 C 
BRANCH  13  15
ATOM     15  C   UNL     1     -29.633  10.981   7.066  1.00  0.00    +0.041 C 
ATOM     16  C   UNL     1     -31.048  11.479   6.805  1.00  0.00    +0.008 C 
ENDBRANCH  13  15
ENDBRANCH  12  13
ENDBRANCH  10  12
ENDBRANCH   8  10
ENDBRANCH   7   8
ENDBRANCH   5   7
ENDBRANCH   4   5
ENDBRANCH   3   4
ENDBRANCH   2   3
ENDBRANCH   1   2
BRANCH   1  17
ATOM     17  C   UNL     1     -25.066   3.750  11.027  1.00  0.00    +0.202 C 
BRANCH  17  18
ATOM     18  C   UNL     1     -24.509   2.687  10.083  1.00  0.00    +0.265 C 
BRANCH  18  19
ATOM     19  O   UNL     1     -24.736   1.376  10.616  1.00  0.00    -0.432 OA
BRANCH  19  20
ATOM     20  C   UNL     1     -25.800   0.714  10.101  1.00  0.00    +0.509 C 
ATOM     21  O   UNL     1     -26.041   0.550   8.915  1.00  0.00    -0.203 OA
BRANCH  20  22
ATOM     22  O   UNL     1     -26.570   0.289  11.131  1.00  0.00    -0.419 OA
BRANCH  22  23
ATOM     23  C   UNL     1     -27.664   1.161  11.444  1.00  0.00    +0.286 C 
ATOM     24  C   UNL     1     -27.442   1.660  12.865  1.00  0.00    +0.066 C 
BRANCH  23  25
ATOM     25  C   UNL     1     -29.014   0.444  11.352  1.00  0.00    +0.347 C 
ATOM     26  O   UNL     1     -29.185  -0.666  10.862  1.00  0.00    -0.248 OA
BRANCH  25  27
ATOM     27  O   UNL     1     -29.995   1.223  11.894  1.00  0.00    -0.460 OA
BRANCH  27  28
ATOM     28  C   UNL     1     -31.021   0.529  12.634  1.00  0.00    +0.173 C 
ATOM     29  C   UNL     1     -30.706   0.744  14.110  1.00  0.00    +0.053 C 
BRANCH  28  30
ATOM     30  C   UNL     1     -32.389   1.095  12.234  1.00  0.00    +0.041 C 
ATOM     31  C   UNL     1     -32.771   0.795  10.793  1.00  0.00    +0.008 C 
ENDBRANCH  28  30
ENDBRANCH  27  28
ENDBRANCH  25  27
ENDBRANCH  23  25
ENDBRANCH  22  23
ENDBRANCH  20  22
ENDBRANCH  19  20
ENDBRANCH  18  19
ENDBRANCH  17  18
ENDBRANCH   1  17
TORSDOF 20
ENDMDL
MODEL 2
REMARK VINA RESULT:    -6.556      4.481      9.135
REMARK INTER + INTRA:         -15.729
REMARK INTER:                 -14.339
REMARK INTRA:                  -1.390
REMARK UNBOUND:                -1.508
REMARK SMILES CC[C@@H](C)OC(=O)[C@@H](C)OC(=O)OCCOCCOC(=O)O[C@H](C)C(=O)O[C@@H](C)CC
REMARK SMILES IDX 16 1 15 2 14 3 13 4 11 5 12 6 10 7 8 8 9 9 6 10 7 11 5 12
REMARK SMILES IDX 3 13 4 14 2 15 1 16 17 17 18 18 19 19 20 20 21 21 22 22
REMARK SMILES IDX 23 23 24 24 25 25 26 26 27 27 28 28 29 29 30 30 31 31
REMARK H PARENT
ROOT
ATOM      1  O   UNL     1     -30.474   0.925  10.472  1.00  0.00    -0.374 OA
ENDROOT
BRANCH   1   2
ATOM      2  C   UNL     1     -30.898   0.679  11.813  1.00  0.00    +0.202 C 
BRANCH   2   3
ATOM      3  C   UNL     1     -29.757   0.358  12.780  1.00  0.00    +0.265 C 
BRANCH   3   4
ATOM      4  O   UNL     1     -28.502   0.323  12.086  1.00  0.00    -0.432 OA
BRANCH   4   5
ATOM      5  C   UNL     1     -27.854  -0.865  12.111  1.00  0.00    +0.509 C 
ATOM      6  O   UNL     1     -28.309  -1.925  12.509  1.00  0.00    -0.203 OA
BRANCH   5   7
ATOM      7  O   UNL     1     -26.606  -0.677  11.617  1.00  0.00    -0.419 OA
BRANCH   7   8
ATOM      8  C   UNL     1     -26.562  -0.468  10.203  1.00  0.00    +0.286 C 
ATOM      9  C   UNL     1     -25.641  -1.532   9.619  1.00  0.00    +0.066 C 
BRANCH   8  10
ATOM     10  C   UNL     1     -26.051   0.910   9.764  1.00  0.00    +0.347 C 
ATOM     11  O   UNL     1     -26.116   1.322   8.612  1.00  0.00    -0.248 OA
BRANCH  10  12
ATOM     12  O   UNL     1     -25.468   1.575  10.802  1.00  0.00    -0.460 OA
BRANCH  12  13
ATOM     13  C   UNL     1     -24.556   2.632  10.452  1.00  0.00    +0.173 C 
ATOM     14  C   UNL     1     -23.182   2.234  10.979  1.00  0.00    +0.053 C 
BRANCH  13  15
ATOM     15  C   UNL     1     -25.043   3.973  11.024  1.00  0.00    +0.041 C 
ATOM     16  C   UNL     1     -25.990   3.847  12.210  1.00  0.00    +0.008 C 
ENDBRANCH  13  15
ENDBRANCH  12  13
ENDBRANCH  10  12
ENDBRANCH   8  10
ENDBRANCH   7   8
ENDBRANCH   5   7
ENDBRANCH   4   5
ENDBRANCH   3   4
ENDBRANCH   2   3
ENDBRANCH   1   2
BRANCH   1  17
ATOM     17  C   UNL     1     -31.001   2.090   9.842  1.00  0.00    +0.202 C 
BRANCH  17  18
ATOM     18  C   UNL     1     -32.466   2.370  10.174  1.00  0.00    +0.265 C 
BRANCH  18  19
ATOM     19  O   UNL     1     -33.271   2.288   8.991  1.00  0.00    -0.432 OA
BRANCH  19  20
ATOM     20  C   UNL     1     -34.607   2.220   9.199  1.00  0.00    +0.509 C 
ATOM     21  O   UNL     1     -35.181   1.452   9.955  1.00  0.00    -0.203 OA
BRANCH  20  22
ATOM     22  O   UNL     1     -35.205   3.136   8.399  1.00  0.00    -0.419 OA
BRANCH  22  23
ATOM     23  C   UNL     1     -35.943   4.140   9.108  1.00  0.00    +0.286 C 
ATOM     24  C   UNL     1     -37.413   3.935   8.766  1.00  0.00    +0.066 C 
BRANCH  23  25
ATOM     25  C   UNL     1     -35.512   5.555   8.713  1.00  0.00    +0.347 C 
ATOM     26  O   UNL     1     -36.256   6.526   8.665  1.00  0.00    -0.248 OA
BRANCH  25  27
ATOM     27  O   UNL     1     -34.179   5.573   8.421  1.00  0.00    -0.460 OA
BRANCH  27  28
ATOM     28  C   UNL     1     -33.785   6.390   7.298  1.00  0.00    +0.173 C 
ATOM     29  C   UNL     1     -32.324   6.760   7.529  1.00  0.00    +0.053 C 
BRANCH  28  30
ATOM     30  C   UNL     1     -33.994   5.591   6.006  1.00  0.00    +0.041 C 
ATOM     31  C   UNL     1     -34.045   6.458   4.759  1.00  0.00    +0.008 C 
ENDBRANCH  28  30
ENDBRANCH  27  28
ENDBRANCH  25  27
ENDBRANCH  23  25
ENDBRANCH  22  23
ENDBRANCH  20  22
ENDBRANCH  19  20
ENDBRANCH  18  19
ENDBRANCH  17  18
ENDBRANCH   1  17
TORSDOF 20
ENDMDL
MODEL 3
REMARK VINA RESULT:    -6.548      1.468      2.080
REMARK INTER + INTRA:         -15.711
REMARK INTER:                 -14.502
REMARK INTRA:                  -1.208
REMARK UNBOUND:                -1.508
REMARK SMILES CC[C@@H](C)OC(=O)[C@@H](C)OC(=O)OCCOCCOC(=O)O[C@H](C)C(=O)O[C@@H](C)CC
REMARK SMILES IDX 16 1 15 2 14 3 13 4 11 5 12 6 10 7 8 8 9 9 6 10 7 11 5 12
REMARK SMILES IDX 3 13 4 14 2 15 1 16 17 17 18 18 19 19 20 20 21 21 22 22
REMARK SMILES IDX 23 23 24 24 25 25 26 26 27 27 28 28 29 29 30 30 31 31
REMARK H PARENT
ROOT
ATOM      1  O   UNL     1     -26.663   3.472  10.357  1.00  0.00    -0.374 OA
ENDROOT
BRANCH   1   2
ATOM      2  C   UNL     1     -25.940   4.585   9.831  1.00  0.00    +0.202 C 
BRANCH   2   3
ATOM      3  C   UNL     1     -26.335   4.969   8.404  1.00  0.00    +0.265 C 
BRANCH   3   4
ATOM      4  O   UNL     1     -26.650   6.366   8.327  1.00  0.00    -0.432 OA
BRANCH   4   5
ATOM      5  C   UNL     1     -25.818   7.109   7.558  1.00  0.00    +0.509 C 
ATOM      6  O   UNL     1     -24.626   7.285   7.750  1.00  0.00    -0.203 OA
BRANCH   5   7
ATOM      7  O   UNL     1     -26.539   7.628   6.535  1.00  0.00    -0.419 OA
BRANCH   7   8
ATOM      8  C   UNL     1     -27.277   8.805   6.876  1.00  0.00    +0.286 C 
ATOM      9  C   UNL     1     -28.740   8.399   7.001  1.00  0.00    +0.066 C 
BRANCH   8  10
ATOM     10  C   UNL     1     -27.176   9.953   5.866  1.00  0.00    +0.347 C 
ATOM     11  O   UNL     1     -26.675   9.837   4.754  1.00  0.00    -0.248 OA
BRANCH  10  12
ATOM     12  O   UNL     1     -27.654  11.117   6.391  1.00  0.00    -0.460 OA
BRANCH  12  13
ATOM     13  C   UNL     1     -28.608  11.837   5.589  1.00  0.00    +0.173 C 
ATOM     14  C   UNL     1     -27.908  13.089   5.073  1.00  0.00    +0.053 C 
BRANCH  13  15
ATOM     15  C   UNL     1     -29.867  12.158   6.411  1.00  0.00    +0.041 C 
ATOM     16  C   UNL     1     -30.942  11.081   6.367  1.00  0.00    +0.008 C 
ENDBRANCH  13  15
ENDBRANCH  12  13
ENDBRANCH  10  12
ENDBRANCH   8  10
ENDBRANCH   7   8
ENDBRANCH   5   7
ENDBRANCH   4   5
ENDBRANCH   3   4
ENDBRANCH   2   3
ENDBRANCH   1   2
BRANCH   1  17
ATOM     17  C   UNL     1     -26.456   2.218   9.711  1.00  0.00    +0.202 C 
BRANCH  17  18
ATOM     18  C   UNL     1     -25.624   1.228  10.522  1.00  0.00    +0.265 C 
BRANCH  18  19
ATOM     19  O   UNL     1     -26.401   0.681  11.595  1.00  0.00    -0.432 OA
BRANCH  19  20
ATOM     20  C   UNL     1     -26.842  -0.586  11.408  1.00  0.00    +0.509 C 
ATOM     21  O   UNL     1     -26.264  -1.466  10.791  1.00  0.00    -0.203 OA
BRANCH  20  22
ATOM     22  O   UNL     1     -28.055  -0.701  12.002  1.00  0.00    -0.419 OA
BRANCH  22  23
ATOM     23  C   UNL     1     -28.262   0.207  13.091  1.00  0.00    +0.286 C 
ATOM     24  C   UNL     1     -28.063  -0.586  14.375  1.00  0.00    +0.066 C 
BRANCH  23  25
ATOM     25  C   UNL     1     -29.668   0.815  13.071  1.00  0.00    +0.347 C 
ATOM     26  O   UNL     1     -30.318   1.109  14.066  1.00  0.00    -0.248 OA
BRANCH  25  27
ATOM     27  O   UNL     1     -30.088   0.978  11.782  1.00  0.00    -0.460 OA
BRANCH  27  28
ATOM     28  C   UNL     1     -31.496   0.772  11.542  1.00  0.00    +0.173 C 
ATOM     29  C   UNL     1     -31.964   1.952  10.696  1.00  0.00    +0.053 C 
BRANCH  28  30
ATOM     30  C   UNL     1     -31.686  -0.574  10.833  1.00  0.00    +0.041 C 
ATOM     31  C   UNL     1     -30.715  -0.797   9.685  1.00  0.00    +0.008 C 
ENDBRANCH  28  30
ENDBRANCH  27  28
ENDBRANCH  25  27
ENDBRANCH  23  25
ENDBRANCH  22  23
ENDBRANCH  20  22
ENDBRANCH  19  20
ENDBRANCH  18  19
ENDBRANCH  17  18
ENDBRANCH   1  17
TORSDOF 20
ENDMDL
MODEL 4
REMARK VINA RESULT:    -6.498      3.047      6.188
REMARK INTER + INTRA:         -15.603
REMARK INTER:                 -13.750
REMARK INTRA:                  -1.853
REMARK UNBOUND:                -1.508
REMARK SMILES CC[C@@H](C)OC(=O)[C@@H](C)OC(=O)OCCOCCOC(=O)O[C@H](C)C(=O)O[C@@H](C)CC
REMARK SMILES IDX 16 1 15 2 14 3 13 4 11 5 12 6 10 7 8 8 9 9 6 10 7 11 5 12
REMARK SMILES IDX 3 13 4 14 2 15 1 16 17 17 18 18 19 19 20 20 21 21 22 22
REMARK SMILES IDX 23 23 24 24 25 25 26 26 27 27 28 28 29 29 30 30 31 31
REMARK H PARENT
ROOT
ATOM      1  O   UNL     1     -28.380   1.294  10.562  1.00  0.00    -0.374 OA
ENDROOT
BRANCH   1   2
ATOM      2  C   UNL     1     -27.513   1.438  11.687  1.00  0.00    +0.202 C 
BRANCH   2   3
ATOM      3  C   UNL     1     -26.034   1.210  11.369  1.00  0.00    +0.265 C 
BRANCH   3   4
ATOM      4  O   UNL     1     -25.711   1.731  10.072  1.00  0.00    -0.432 OA
BRANCH   4   5
ATOM      5  C   UNL     1     -25.422   3.054  10.030  1.00  0.00    +0.509 C 
ATOM      6  O   UNL     1     -24.935   3.713  10.934  1.00  0.00    -0.203 OA
BRANCH   5   7
ATOM      7  O   UNL     1     -25.770   3.523   8.807  1.00  0.00    -0.419 OA
BRANCH   7   8
ATOM      8  C   UNL     1     -26.259   4.867   8.814  1.00  0.00    +0.286 C 
ATOM      9  C   UNL     1     -27.773   4.795   8.660  1.00  0.00    +0.066 C 
BRANCH   8  10
ATOM     10  C   UNL     1     -25.701   5.769   7.706  1.00  0.00    +0.347 C 
ATOM     11  O   UNL     1     -24.861   5.404   6.893  1.00  0.00    -0.248 OA
BRANCH  10  12
ATOM     12  O   UNL     1     -26.213   7.030   7.791  1.00  0.00    -0.460 OA
BRANCH  12  13
ATOM     13  C   UNL     1     -26.196   7.810   6.581  1.00  0.00    +0.173 C 
ATOM     14  C   UNL     1     -25.116   8.873   6.747  1.00  0.00    +0.053 C 
BRANCH  13  15
ATOM     15  C   UNL     1     -27.584   8.413   6.311  1.00  0.00    +0.041 C 
ATOM     16  C   UNL     1     -28.364   8.790   7.564  1.00  0.00    +0.008 C 
ENDBRANCH  13  15
ENDBRANCH  12  13
ENDBRANCH  10  12
ENDBRANCH   8  10
ENDBRANCH   7   8
ENDBRANCH   5   7
ENDBRANCH   4   5
ENDBRANCH   3   4
ENDBRANCH   2   3
ENDBRANCH   1   2
BRANCH   1  17
ATOM     17  C   UNL     1     -29.576   2.067  10.580  1.00  0.00    +0.202 C 
BRANCH  17  18
ATOM     18  C   UNL     1     -30.845   1.260  10.313  1.00  0.00    +0.265 C 
BRANCH  18  19
ATOM     19  O   UNL     1     -31.941   2.134  10.015  1.00  0.00    -0.432 OA
BRANCH  19  20
ATOM     20  C   UNL     1     -33.175   1.607  10.205  1.00  0.00    +0.509 C 
ATOM     21  O   UNL     1     -33.424   0.504  10.664  1.00  0.00    -0.203 OA
BRANCH  20  22
ATOM     22  O   UNL     1     -34.089   2.509   9.770  1.00  0.00    -0.419 OA
BRANCH  22  23
ATOM     23  C   UNL     1     -33.687   3.875   9.931  1.00  0.00    +0.286 C 
ATOM     24  C   UNL     1     -34.384   4.398  11.180  1.00  0.00    +0.066 C 
BRANCH  23  25
ATOM     25  C   UNL     1     -34.075   4.733   8.724  1.00  0.00    +0.347 C 
ATOM     26  O   UNL     1     -35.209   5.123   8.477  1.00  0.00    -0.248 OA
BRANCH  25  27
ATOM     27  O   UNL     1     -32.971   4.998   7.965  1.00  0.00    -0.460 OA
BRANCH  27  28
ATOM     28  C   UNL     1     -32.666   6.392   7.752  1.00  0.00    +0.173 C 
ATOM     29  C   UNL     1     -31.255   6.610   8.285  1.00  0.00    +0.053 C 
BRANCH  28  30
ATOM     30  C   UNL     1     -32.786   6.701   6.254  1.00  0.00    +0.041 C 
ATOM     31  C   UNL     1     -31.852   7.805   5.787  1.00  0.00    +0.008 C 
ENDBRANCH  28  30
ENDBRANCH  27  28
ENDBRANCH  25  27
ENDBRANCH  23  25
ENDBRANCH  22  23
ENDBRANCH  20  22
ENDBRANCH  19  20
ENDBRANCH  18  19
ENDBRANCH  17  18
ENDBRANCH   1  17
TORSDOF 20
ENDMDL
MODEL 5
REMARK VINA RESULT:    -6.483      1.555      2.171
REMARK INTER + INTRA:         -15.570
REMARK INTER:                 -14.363
REMARK INTRA:                  -1.208
REMARK UNBOUND:                -1.508
REMARK SMILES CC[C@@H](C)OC(=O)[C@@H](C)OC(=O)OCCOCCOC(=O)O[C@H](C)C(=O)O[C@@H](C)CC
REMARK SMILES IDX 16 1 15 2 14 3 13 4 11 5 12 6 10 7 8 8 9 9 6 10 7 11 5 12
REMARK SMILES IDX 3 13 4 14 2 15 1 16 17 17 18 18 19 19 20 20 21 21 22 22
REMARK SMILES IDX 23 23 24 24 25 25 26 26 27 27 28 28 29 29 30 30 31 31
REMARK H PARENT
ROOT
ATOM      1  O   UNL     1     -26.315   3.658  10.666  1.00  0.00    -0.374 OA
ENDROOT
BRANCH   1   2
ATOM      2  C   UNL     1     -25.722   4.686   9.873  1.00  0.00    +0.202 C 
BRANCH   2   3
ATOM      3  C   UNL     1     -26.462   4.970   8.564  1.00  0.00    +0.265 C 
BRANCH   3   4
ATOM      4  O   UNL     1     -26.570   6.383   8.342  1.00  0.00    -0.432 OA
BRANCH   4   5
ATOM      5  C   UNL     1     -25.844   6.868   7.307  1.00  0.00    +0.509 C 
ATOM      6  O   UNL     1     -24.630   6.820   7.194  1.00  0.00    -0.203 OA
BRANCH   5   7
ATOM      7  O   UNL     1     -26.700   7.419   6.412  1.00  0.00    -0.419 OA
BRANCH   7   8
ATOM      8  C   UNL     1     -27.226   8.688   6.811  1.00  0.00    +0.286 C 
ATOM      9  C   UNL     1     -28.677   8.467   7.218  1.00  0.00    +0.066 C 
BRANCH   8  10
ATOM     10  C   UNL     1     -27.185   9.778   5.733  1.00  0.00    +0.347 C 
ATOM     11  O   UNL     1     -26.880   9.567   4.566  1.00  0.00    -0.248 OA
BRANCH  10  12
ATOM     12  O   UNL     1     -27.467  11.004   6.259  1.00  0.00    -0.460 OA
BRANCH  12  13
ATOM     13  C   UNL     1     -28.455  11.787   5.564  1.00  0.00    +0.173 C 
ATOM     14  C   UNL     1     -27.765  13.058   5.083  1.00  0.00    +0.053 C 
BRANCH  13  15
ATOM     15  C   UNL     1     -29.654  12.075   6.482  1.00  0.00    +0.041 C 
ATOM     16  C   UNL     1     -30.829  11.122   6.305  1.00  0.00    +0.008 C 
ENDBRANCH  13  15
ENDBRANCH  12  13
ENDBRANCH  10  12
ENDBRANCH   8  10
ENDBRANCH   7   8
ENDBRANCH   5   7
ENDBRANCH   4   5
ENDBRANCH   3   4
ENDBRANCH   2   3
ENDBRANCH   1   2
BRANCH   1  17
ATOM     17  C   UNL     1     -26.009   2.315  10.298  1.00  0.00    +0.202 C 
BRANCH  17  18
ATOM     18  C   UNL     1     -24.827   1.715  11.057  1.00  0.00    +0.265 C 
BRANCH  18  19
ATOM     19  O   UNL     1     -25.126   0.376  11.470  1.00  0.00    -0.432 OA
BRANCH  19  20
ATOM     20  C   UNL     1     -24.858  -0.589  10.558  1.00  0.00    +0.509 C 
ATOM     21  O   UNL     1     -23.760  -0.865  10.101  1.00  0.00    -0.203 OA
BRANCH  20  22
ATOM     22  O   UNL     1     -26.029  -1.180  10.215  1.00  0.00    -0.419 OA
BRANCH  22  23
ATOM     23  C   UNL     1     -26.964  -1.298  11.295  1.00  0.00    +0.286 C 
ATOM     24  C   UNL     1     -27.004  -2.768  11.690  1.00  0.00    +0.066 C 
BRANCH  23  25
ATOM     25  C   UNL     1     -28.366  -0.832  10.893  1.00  0.00    +0.347 C 
ATOM     26  O   UNL     1     -28.623  -0.160   9.902  1.00  0.00    -0.248 OA
BRANCH  25  27
ATOM     27  O   UNL     1     -29.284  -1.276  11.800  1.00  0.00    -0.460 OA
BRANCH  27  28
ATOM     28  C   UNL     1     -30.081  -0.261  12.446  1.00  0.00    +0.173 C 
ATOM     29  C   UNL     1     -31.449  -0.886  12.698  1.00  0.00    +0.053 C 
BRANCH  28  30
ATOM     30  C   UNL     1     -29.381   0.169  13.741  1.00  0.00    +0.041 C 
ATOM     31  C   UNL     1     -30.299   0.886  14.717  1.00  0.00    +0.008 C 
ENDBRANCH  28  30
ENDBRANCH  27  28
ENDBRANCH  25  27
ENDBRANCH  23  25
ENDBRANCH  22  23
ENDBRANCH  20  22
ENDBRANCH  19  20
ENDBRANCH  18  19
ENDBRANCH  17  18
ENDBRANCH   1  17
TORSDOF 20
ENDMDL
MODEL 6
REMARK VINA RESULT:    -6.443      4.719      9.079
REMARK INTER + INTRA:         -15.484
REMARK INTER:                 -13.831
REMARK INTRA:                  -1.653
REMARK UNBOUND:                -1.508
REMARK SMILES CC[C@@H](C)OC(=O)[C@@H](C)OC(=O)OCCOCCOC(=O)O[C@H](C)C(=O)O[C@@H](C)CC
REMARK SMILES IDX 16 1 15 2 14 3 13 4 11 5 12 6 10 7 8 8 9 9 6 10 7 11 5 12
REMARK SMILES IDX 3 13 4 14 2 15 1 16 17 17 18 18 19 19 20 20 21 21 22 22
REMARK SMILES IDX 23 23 24 24 25 25 26 26 27 27 28 28 29 29 30 30 31 31
REMARK H PARENT
ROOT
ATOM      1  O   UNL     1     -31.500   1.357   9.564  1.00  0.00    -0.374 OA
ENDROOT
BRANCH   1   2
ATOM      2  C   UNL     1     -31.393  -0.056   9.739  1.00  0.00    +0.202 C 
BRANCH   2   3
ATOM      3  C   UNL     1     -29.971  -0.544  10.021  1.00  0.00    +0.265 C 
BRANCH   3   4
ATOM      4  O   UNL     1     -29.889  -1.128  11.329  1.00  0.00    -0.432 OA
BRANCH   4   5
ATOM      5  C   UNL     1     -28.920  -0.627  12.132  1.00  0.00    +0.509 C 
ATOM      6  O   UNL     1     -28.446  -1.173  13.115  1.00  0.00    -0.203 OA
BRANCH   5   7
ATOM      7  O   UNL     1     -28.566   0.591  11.656  1.00  0.00    -0.419 OA
BRANCH   7   8
ATOM      8  C   UNL     1     -27.292   1.051  12.115  1.00  0.00    +0.286 C 
ATOM      9  C   UNL     1     -27.483   2.476  12.622  1.00  0.00    +0.066 C 
BRANCH   8  10
ATOM     10  C   UNL     1     -26.182   1.057  11.058  1.00  0.00    +0.347 C 
ATOM     11  O   UNL     1     -26.324   0.622   9.922  1.00  0.00    -0.248 OA
BRANCH  10  12
ATOM     12  O   UNL     1     -25.015   1.544  11.569  1.00  0.00    -0.460 OA
BRANCH  12  13
ATOM     13  C   UNL     1     -24.186   2.298  10.665  1.00  0.00    +0.173 C 
ATOM     14  C   UNL     1     -22.741   1.905  10.947  1.00  0.00    +0.053 C 
BRANCH  13  15
ATOM     15  C   UNL     1     -24.435   3.805  10.838  1.00  0.00    +0.041 C 
ATOM     16  C   UNL     1     -25.400   4.407   9.826  1.00  0.00    +0.008 C 
ENDBRANCH  13  15
ENDBRANCH  12  13
ENDBRANCH  10  12
ENDBRANCH   8  10
ENDBRANCH   7   8
ENDBRANCH   5   7
ENDBRANCH   4   5
ENDBRANCH   3   4
ENDBRANCH   2   3
ENDBRANCH   1   2
BRANCH   1  17
ATOM     17  C   UNL     1     -31.941   2.105  10.694  1.00  0.00    +0.202 C 
BRANCH  17  18
ATOM     18  C   UNL     1     -33.434   2.426  10.687  1.00  0.00    +0.265 C 
BRANCH  18  19
ATOM     19  O   UNL     1     -33.642   3.842  10.746  1.00  0.00    -0.432 OA
BRANCH  19  20
ATOM     20  C   UNL     1     -33.069   4.557   9.748  1.00  0.00    +0.509 C 
ATOM     21  O   UNL     1     -32.272   5.472   9.883  1.00  0.00    -0.203 OA
BRANCH  20  22
ATOM     22  O   UNL     1     -33.557   4.100   8.569  1.00  0.00    -0.419 OA
BRANCH  22  23
ATOM     23  C   UNL     1     -34.942   4.398   8.354  1.00  0.00    +0.286 C 
ATOM     24  C   UNL     1     -35.420   3.495   7.225  1.00  0.00    +0.066 C 
BRANCH  23  25
ATOM     25  C   UNL     1     -35.161   5.864   7.971  1.00  0.00    +0.347 C 
ATOM     26  O   UNL     1     -34.772   6.382   6.932  1.00  0.00    -0.248 OA
BRANCH  25  27
ATOM     27  O   UNL     1     -35.851   6.507   8.958  1.00  0.00    -0.460 OA
BRANCH  27  28
ATOM     28  C   UNL     1     -36.739   5.689   9.749  1.00  0.00    +0.173 C 
ATOM     29  C   UNL     1     -36.637   6.204  11.180  1.00  0.00    +0.053 C 
BRANCH  28  30
ATOM     30  C   UNL     1     -38.158   5.806   9.179  1.00  0.00    +0.041 C 
ATOM     31  C   UNL     1     -39.244   5.437  10.177  1.00  0.00    +0.008 C 
ENDBRANCH  28  30
ENDBRANCH  27  28
ENDBRANCH  25  27
ENDBRANCH  23  25
ENDBRANCH  22  23
ENDBRANCH  20  22
ENDBRANCH  19  20
ENDBRANCH  18  19
ENDBRANCH  17  18
ENDBRANCH   1  17
TORSDOF 20
ENDMDL
MODEL 7
REMARK VINA RESULT:    -6.389      3.403      6.475
REMARK INTER + INTRA:         -15.366
REMARK INTER:                 -13.762
REMARK INTRA:                  -1.604
REMARK UNBOUND:                -1.508
REMARK SMILES CC[C@@H](C)OC(=O)[C@@H](C)OC(=O)OCCOCCOC(=O)O[C@H](C)C(=O)O[C@@H](C)CC
REMARK SMILES IDX 16 1 15 2 14 3 13 4 11 5 12 6 10 7 8 8 9 9 6 10 7 11 5 12
REMARK SMILES IDX 3 13 4 14 2 15 1 16 17 17 18 18 19 19 20 20 21 21 22 22
REMARK SMILES IDX 23 23 24 24 25 25 26 26 27 27 28 28 29 29 30 30 31 31
REMARK H PARENT
ROOT
ATOM      1  O   UNL     1     -29.302  -0.438  10.501  1.00  0.00    -0.374 OA
ENDROOT
BRANCH   1   2
ATOM      2  C   UNL     1     -30.290   0.516  10.889  1.00  0.00    +0.202 C 
BRANCH   2   3
ATOM      3  C   UNL     1     -31.596   0.419  10.099  1.00  0.00    +0.265 C 
BRANCH   3   4
ATOM      4  O   UNL     1     -31.839   1.633   9.375  1.00  0.00    -0.432 OA
BRANCH   4   5
ATOM      5  C   UNL     1     -32.838   2.410   9.858  1.00  0.00    +0.509 C 
ATOM      6  O   UNL     1     -33.190   2.488  11.024  1.00  0.00    -0.203 OA
BRANCH   5   7
ATOM      7  O   UNL     1     -33.383   3.090   8.820  1.00  0.00    -0.419 OA
BRANCH   7   8
ATOM      8  C   UNL     1     -33.647   4.468   9.097  1.00  0.00    +0.286 C 
ATOM      9  C   UNL     1     -35.017   4.790   8.513  1.00  0.00    +0.066 C 
BRANCH   8  10
ATOM     10  C   UNL     1     -32.628   5.456   8.518  1.00  0.00    +0.347 C 
ATOM     11  O   UNL     1     -31.439   5.454   8.811  1.00  0.00    -0.248 OA
BRANCH  10  12
ATOM     12  O   UNL     1     -33.231   6.363   7.697  1.00  0.00    -0.460 OA
BRANCH  12  13
ATOM     13  C   UNL     1     -32.391   6.990   6.710  1.00  0.00    +0.173 C 
ATOM     14  C   UNL     1     -32.159   8.426   7.163  1.00  0.00    +0.053 C 
BRANCH  13  15
ATOM     15  C   UNL     1     -33.041   6.904   5.320  1.00  0.00    +0.041 C 
ATOM     16  C   UNL     1     -33.853   5.639   5.078  1.00  0.00    +0.008 C 
ENDBRANCH  13  15
ENDBRANCH  12  13
ENDBRANCH  10  12
ENDBRANCH   8  10
ENDBRANCH   7   8
ENDBRANCH   5   7
ENDBRANCH   4   5
ENDBRANCH   3   4
ENDBRANCH   2   3
ENDBRANCH   1   2
BRANCH   1  17
ATOM     17  C   UNL     1     -28.730  -1.222  11.545  1.00  0.00    +0.202 C 
BRANCH  17  18
ATOM     18  C   UNL     1     -27.218  -1.403  11.434  1.00  0.00    +0.265 C 
BRANCH  18  19
ATOM     19  O   UNL     1     -26.609  -0.215  10.912  1.00  0.00    -0.432 OA
BRANCH  19  20
ATOM     20  C   UNL     1     -25.634  -0.415   9.994  1.00  0.00    +0.509 C 
ATOM     21  O   UNL     1     -25.754  -1.007   8.933  1.00  0.00    -0.203 OA
BRANCH  20  22
ATOM     22  O   UNL     1     -24.489   0.133  10.469  1.00  0.00    -0.419 OA
BRANCH  22  23
ATOM     23  C   UNL     1     -24.024   1.262   9.718  1.00  0.00    +0.286 C 
ATOM     24  C   UNL     1     -22.581   0.973   9.328  1.00  0.00    +0.066 C 
BRANCH  23  25
ATOM     25  C   UNL     1     -24.090   2.558  10.532  1.00  0.00    +0.347 C 
ATOM     26  O   UNL     1     -23.569   2.724  11.628  1.00  0.00    -0.248 OA
BRANCH  25  27
ATOM     27  O   UNL     1     -24.814   3.497   9.856  1.00  0.00    -0.460 OA
BRANCH  27  28
ATOM     28  C   UNL     1     -26.208   3.192   9.642  1.00  0.00    +0.173 C 
ATOM     29  C   UNL     1     -26.873   3.236  11.013  1.00  0.00    +0.053 C 
BRANCH  28  30
ATOM     30  C   UNL     1     -26.796   4.220   8.667  1.00  0.00    +0.041 C 
ATOM     31  C   UNL     1     -25.890   5.417   8.431  1.00  0.00    +0.008 C 
ENDBRANCH  28  30
ENDBRANCH  27  28
ENDBRANCH  25  27
ENDBRANCH  23  25
ENDBRANCH  22  23
ENDBRANCH  20  22
ENDBRANCH  19  20
ENDBRANCH  18  19
ENDBRANCH  17  18
ENDBRANCH   1  17
TORSDOF 20
ENDMDL
MODEL 8
REMARK VINA RESULT:    -6.386      4.560      7.875
REMARK INTER + INTRA:         -15.360
REMARK INTER:                 -13.955
REMARK INTRA:                  -1.405
REMARK UNBOUND:                -1.508
REMARK SMILES CC[C@@H](C)OC(=O)[C@@H](C)OC(=O)OCCOCCOC(=O)O[C@H](C)C(=O)O[C@@H](C)CC
REMARK SMILES IDX 16 1 15 2 14 3 13 4 11 5 12 6 10 7 8 8 9 9 6 10 7 11 5 12
REMARK SMILES IDX 3 13 4 14 2 15 1 16 17 17 18 18 19 19 20 20 21 21 22 22
REMARK SMILES IDX 23 23 24 24 25 25 26 26 27 27 28 28 29 29 30 30 31 31
REMARK H PARENT
ROOT
ATOM      1  O   UNL     1     -30.487  -0.056  13.589  1.00  0.00    -0.374 OA
ENDROOT
BRANCH   1   2
ATOM      2  C   UNL     1     -31.332  -0.214  12.450  1.00  0.00    +0.202 C 
BRANCH   2   3
ATOM      3  C   UNL     1     -31.118   0.841  11.363  1.00  0.00    +0.265 C 
BRANCH   3   4
ATOM      4  O   UNL     1     -32.202   1.781  11.352  1.00  0.00    -0.432 OA
BRANCH   4   5
ATOM      5  C   UNL     1     -32.608   2.189  10.126  1.00  0.00    +0.509 C 
ATOM      6  O   UNL     1     -33.186   1.507   9.295  1.00  0.00    -0.203 OA
BRANCH   5   7
ATOM      7  O   UNL     1     -32.259   3.490   9.977  1.00  0.00    -0.419 OA
BRANCH   7   8
ATOM      8  C   UNL     1     -33.309   4.324   9.481  1.00  0.00    +0.286 C 
ATOM      9  C   UNL     1     -32.657   5.570   8.894  1.00  0.00    +0.066 C 
BRANCH   8  10
ATOM     10  C   UNL     1     -34.341   4.764  10.527  1.00  0.00    +0.347 C 
ATOM     11  O   UNL     1     -34.048   5.111  11.664  1.00  0.00    -0.248 OA
BRANCH  10  12
ATOM     12  O   UNL     1     -35.612   4.655  10.044  1.00  0.00    -0.460 OA
BRANCH  12  13
ATOM     13  C   UNL     1     -36.664   5.147  10.895  1.00  0.00    +0.173 C 
ATOM     14  C   UNL     1     -37.708   4.042  11.002  1.00  0.00    +0.053 C 
BRANCH  13  15
ATOM     15  C   UNL     1     -37.242   6.455  10.333  1.00  0.00    +0.041 C 
ATOM     16  C   UNL     1     -38.641   6.328   9.745  1.00  0.00    +0.008 C 
ENDBRANCH  13  15
ENDBRANCH  12  13
ENDBRANCH  10  12
ENDBRANCH   8  10
ENDBRANCH   7   8
ENDBRANCH   5   7
ENDBRANCH   4   5
ENDBRANCH   3   4
ENDBRANCH   2   3
ENDBRANCH   1   2
BRANCH   1  17
ATOM     17  C   UNL     1     -29.381  -0.949  13.688  1.00  0.00    +0.202 C 
BRANCH  17  18
ATOM     18  C   UNL     1     -28.019  -0.258  13.707  1.00  0.00    +0.265 C 
BRANCH  18  19
ATOM     19  O   UNL     1     -27.772   0.395  12.455  1.00  0.00    -0.432 OA
BRANCH  19  20
ATOM     20  C   UNL     1     -27.774   1.749  12.494  1.00  0.00    +0.509 C 
ATOM     21  O   UNL     1     -28.124   2.443  13.435  1.00  0.00    -0.203 OA
BRANCH  20  22
ATOM     22  O   UNL     1     -27.345   2.205  11.291  1.00  0.00    -0.419 OA
BRANCH  22  23
ATOM     23  C   UNL     1     -25.950   2.528  11.251  1.00  0.00    +0.286 C 
ATOM     24  C   UNL     1     -25.793   3.902  11.888  1.00  0.00    +0.066 C 
BRANCH  23  25
ATOM     25  C   UNL     1     -25.409   2.557   9.819  1.00  0.00    +0.347 C 
ATOM     26  O   UNL     1     -25.515   3.504   9.049  1.00  0.00    -0.248 OA
BRANCH  25  27
ATOM     27  O   UNL     1     -24.794   1.374   9.527  1.00  0.00    -0.460 OA
BRANCH  27  28
ATOM     28  C   UNL     1     -24.506   0.514  10.650  1.00  0.00    +0.173 C 
ATOM     29  C   UNL     1     -24.983  -0.880  10.255  1.00  0.00    +0.053 C 
BRANCH  28  30
ATOM     30  C   UNL     1     -23.001   0.563  10.939  1.00  0.00    +0.041 C 
ATOM     31  C   UNL     1     -22.153   0.788   9.698  1.00  0.00    +0.008 C 
ENDBRANCH  28  30
ENDBRANCH  27  28
ENDBRANCH  25  27
ENDBRANCH  23  25
ENDBRANCH  22  23
ENDBRANCH  20  22
ENDBRANCH  19  20
ENDBRANCH  18  19
ENDBRANCH  17  18
ENDBRANCH   1  17
TORSDOF 20
ENDMDL
MODEL 9
REMARK VINA RESULT:    -6.317      3.374     11.212
REMARK INTER + INTRA:         -15.210
REMARK INTER:                 -13.991
REMARK INTRA:                  -1.219
REMARK UNBOUND:                -1.508
REMARK SMILES CC[C@@H](C)OC(=O)[C@@H](C)OC(=O)OCCOCCOC(=O)O[C@H](C)C(=O)O[C@@H](C)CC
REMARK SMILES IDX 16 1 15 2 14 3 13 4 11 5 12 6 10 7 8 8 9 9 6 10 7 11 5 12
REMARK SMILES IDX 3 13 4 14 2 15 1 16 17 17 18 18 19 19 20 20 21 21 22 22
REMARK SMILES IDX 23 23 24 24 25 25 26 26 27 27 28 28 29 29 30 30 31 31
REMARK H PARENT
ROOT
ATOM      1  O   UNL     1     -34.386   5.140   6.677  1.00  0.00    -0.374 OA
ENDROOT
BRANCH   1   2
ATOM      2  C   UNL     1     -35.126   4.638   7.789  1.00  0.00    +0.202 C 
BRANCH   2   3
ATOM      3  C   UNL     1     -34.611   3.302   8.330  1.00  0.00    +0.265 C 
BRANCH   3   4
ATOM      4  O   UNL     1     -34.971   3.144   9.709  1.00  0.00    -0.432 OA
BRANCH   4   5
ATOM      5  C   UNL     1     -34.189   3.804  10.596  1.00  0.00    +0.509 C 
ATOM      6  O   UNL     1     -34.469   4.845  11.168  1.00  0.00    -0.203 OA
BRANCH   5   7
ATOM      7  O   UNL     1     -33.034   3.109  10.738  1.00  0.00    -0.419 OA
BRANCH   7   8
ATOM      8  C   UNL     1     -33.215   1.749  11.140  1.00  0.00    +0.286 C 
ATOM      9  C   UNL     1     -33.276   1.732  12.662  1.00  0.00    +0.066 C 
BRANCH   8  10
ATOM     10  C   UNL     1     -32.113   0.783  10.687  1.00  0.00    +0.347 C 
ATOM     11  O   UNL     1     -31.890   0.510   9.514  1.00  0.00    -0.248 OA
BRANCH  10  12
ATOM     12  O   UNL     1     -31.470   0.232  11.756  1.00  0.00    -0.460 OA
BRANCH  12  13
ATOM     13  C   UNL     1     -30.047   0.435  11.822  1.00  0.00    +0.173 C 
ATOM     14  C   UNL     1     -29.386  -0.902  11.510  1.00  0.00    +0.053 C 
BRANCH  13  15
ATOM     15  C   UNL     1     -29.646   0.987  13.199  1.00  0.00    +0.041 C 
ATOM     16  C   UNL     1     -30.286   0.268  14.379  1.00  0.00    +0.008 C 
ENDBRANCH  13  15
ENDBRANCH  12  13
ENDBRANCH  10  12
ENDBRANCH   8  10
ENDBRANCH   7   8
ENDBRANCH   5   7
ENDBRANCH   4   5
ENDBRANCH   3   4
ENDBRANCH   2   3
ENDBRANCH   1   2
BRANCH   1  17
ATOM     17  C   UNL     1     -34.137   6.543   6.661  1.00  0.00    +0.202 C 
BRANCH  17  18
ATOM     18  C   UNL     1     -32.733   6.923   6.193  1.00  0.00    +0.265 C 
BRANCH  18  19
ATOM     19  O   UNL     1     -32.504   8.324   6.386  1.00  0.00    -0.432 OA
BRANCH  19  20
ATOM     20  C   UNL     1     -31.235   8.667   6.714  1.00  0.00    +0.509 C 
ATOM     21  O   UNL     1     -30.442   7.981   7.340  1.00  0.00    -0.203 OA
BRANCH  20  22
ATOM     22  O   UNL     1     -31.004   9.920   6.251  1.00  0.00    -0.419 OA
BRANCH  22  23
ATOM     23  C   UNL     1     -30.170  10.715   7.104  1.00  0.00    +0.286 C 
ATOM     24  C   UNL     1     -31.067  11.757   7.757  1.00  0.00    +0.066 C 
BRANCH  23  25
ATOM     25  C   UNL     1     -29.052  11.411   6.324  1.00  0.00    +0.347 C 
ATOM     26  O   UNL     1     -29.196  12.417   5.640  1.00  0.00    -0.248 OA
BRANCH  25  27
ATOM     27  O   UNL     1     -27.873  10.746   6.502  1.00  0.00    -0.460 OA
BRANCH  27  28
ATOM     28  C   UNL     1     -27.103  10.487   5.310  1.00  0.00    +0.173 C 
ATOM     29  C   UNL     1     -25.815  11.291   5.447  1.00  0.00    +0.053 C 
BRANCH  28  30
ATOM     30  C   UNL     1     -26.848   8.978   5.203  1.00  0.00    +0.041 C 
ATOM     31  C   UNL     1     -26.880   8.262   6.543  1.00  0.00    +0.008 C 
ENDBRANCH  28  30
ENDBRANCH  27  28
ENDBRANCH  25  27
ENDBRANCH  23  25
ENDBRANCH  22  23
ENDBRANCH  20  22
ENDBRANCH  19  20
ENDBRANCH  18  19
ENDBRANCH  17  18
ENDBRANCH   1  17
TORSDOF 20
ENDMDL
