REMARK SMILES CC(C)NC[C@H](O)c1ccc(O)cc1
REMARK SMILES IDX 5 1 4 2 2 4 1 5 3 6 6 7 7 8 8 10 9 11 14 12 10 13 13 14
REMARK SMILES IDX 11 15 12 16
REMARK H PARENT 4 3 7 9 12 17
ROOT
ATOM      1  C   UNL     1      -0.632   0.062  -0.029  1.00  0.00    +0.117 C 
ENDROOT
BRANCH   1   2
ATOM      2  N   UNL     1      -1.969   0.468   0.451  1.00  0.00    -0.312 NA
ATOM      3  H   UNL     1      -2.247  -0.133   1.228  1.00  0.00    +0.123 HD
BRANCH   2   4
ATOM      4  C   UNL     1      -2.992   0.410  -0.602  1.00  0.00    +0.047 C 
ATOM      5  C   UNL     1      -3.349  -1.024  -0.997  1.00  0.00    +0.024 C 
ATOM      6  C   UNL     1      -4.237   1.129  -0.081  1.00  0.00    +0.024 C 
ENDBRANCH   2   4
ENDBRANCH   1   2
BRANCH   1   7
ATOM      7  C   UNL     1       0.424   0.356   1.065  1.00  0.00    +0.158 C 
BRANCH   7   8
ATOM      8  O   UNL     1       0.311   1.728   1.462  1.00  0.00    -0.387 OA
ATOM      9  H   UNL     1      -0.644   1.923   1.374  1.00  0.00    +0.211 HD
ENDBRANCH   7   8
BRANCH   7  10
ATOM     10  C   UNL     1       1.827   0.056   0.585  1.00  0.00    -0.018 A 
ATOM     11  C   UNL     1       2.387  -1.214   0.804  1.00  0.00    +0.010 A 
ATOM     12  C   UNL     1       2.579   1.011  -0.116  1.00  0.00    +0.010 A 
ATOM     13  C   UNL     1       3.670  -1.518   0.340  1.00  0.00    +0.046 A 
ATOM     14  C   UNL     1       3.859   0.708  -0.581  1.00  0.00    +0.046 A 
ATOM     15  C   UNL     1       4.395  -0.552  -0.350  1.00  0.00    +0.115 A 
BRANCH  15  16
ATOM     16  O   UNL     1       5.649  -0.807  -0.821  1.00  0.00    -0.508 OA
ATOM     17  H   UNL     1       5.902  -1.706  -0.555  1.00  0.00    +0.293 HD
ENDBRANCH  15  16
ENDBRANCH   7  10
ENDBRANCH   1   7
TORSDOF 6
