MODEL 1
REMARK VINA RESULT:    -6.906      0.000      0.000
REMARK INTER + INTRA:         -10.468
REMARK INTER:                  -9.732
REMARK INTRA:                  -0.736
REMARK UNBOUND:                -0.736
REMARK SMILES CCOC(=O)c1ccc(S(=O)(=O)N(CC)CC)cc1
REMARK SMILES IDX 6 1 7 2 8 3 9 4 18 5 19 6 4 7 5 8 3 9 2 10 1 11 10 12 11 13
REMARK SMILES IDX 12 14 13 15 14 16 15 17 16 18 17 19
REMARK H PARENT
ROOT
ATOM      1  C   UNL     1     -31.534   7.383   7.242  1.00  0.00    +0.060 A 
ATOM      2  C   UNL     1     -31.386   6.615   8.407  1.00  0.00    +0.017 A 
ATOM      3  C   UNL     1     -32.255   5.553   8.670  1.00  0.00    +0.022 A 
ATOM      4  C   UNL     1     -33.265   5.244   7.753  1.00  0.00    +0.082 A 
ATOM      5  C   UNL     1     -33.440   6.021   6.603  1.00  0.00    +0.022 A 
ATOM      6  C   UNL     1     -32.569   7.083   6.344  1.00  0.00    +0.017 A 
ENDROOT
BRANCH   1   7
ATOM      7  C   UNL     1     -30.577   8.502   7.014  1.00  0.00    +0.338 C 
ATOM      8  O   UNL     1     -29.368   8.382   7.119  1.00  0.00    -0.246 OA
BRANCH   7   9
ATOM      9  O   UNL     1     -31.242   9.634   6.673  1.00  0.00    -0.462 OA
BRANCH   9  10
ATOM     10  C   UNL     1     -31.575  10.512   7.761  1.00  0.00    +0.230 C 
ATOM     11  C   UNL     1     -30.685  11.741   7.731  1.00  0.00    +0.049 C 
ENDBRANCH   9  10
ENDBRANCH   7   9
ENDBRANCH   1   7
BRANCH   4  12
ATOM     12  S   UNL     1     -34.405   3.920   8.106  1.00  0.00    +0.243 S 
ATOM     13  O   UNL     1     -33.633   2.853   8.707  1.00  0.00    -0.207 OA
ATOM     14  O   UNL     1     -35.184   3.692   6.907  1.00  0.00    -0.207 OA
BRANCH  12  15
ATOM     15  N   UNL     1     -35.420   4.575   9.284  1.00  0.00    -0.198 NA
BRANCH  15  16
ATOM     16  C   UNL     1     -35.361   4.071  10.666  1.00  0.00    +0.099 C 
ATOM     17  C   UNL     1     -34.463   4.970  11.499  1.00  0.00    +0.022 C 
ENDBRANCH  15  16
BRANCH  15  18
ATOM     18  C   UNL     1     -36.127   5.848   9.054  1.00  0.00    +0.099 C 
ATOM     19  C   UNL     1     -37.574   5.815   9.512  1.00  0.00    +0.022 C 
ENDBRANCH  15  18
ENDBRANCH  12  15
ENDBRANCH   4  12
TORSDOF 7
ENDMDL
MODEL 2
REMARK VINA RESULT:    -6.716      1.628      2.145
REMARK INTER + INTRA:         -10.200
REMARK INTER:                  -9.631
REMARK INTRA:                  -0.569
REMARK UNBOUND:                -0.736
REMARK SMILES CCOC(=O)c1ccc(S(=O)(=O)N(CC)CC)cc1
REMARK SMILES IDX 6 1 7 2 8 3 9 4 18 5 19 6 4 7 5 8 3 9 2 10 1 11 10 12 11 13
REMARK SMILES IDX 12 14 13 15 14 16 15 17 16 18 17 19
REMARK H PARENT
ROOT
ATOM      1  C   UNL     1     -30.346   7.751   7.398  1.00  0.00    +0.060 A 
ATOM      2  C   UNL     1     -30.596   6.809   8.407  1.00  0.00    +0.017 A 
ATOM      3  C   UNL     1     -31.815   6.129   8.455  1.00  0.00    +0.022 A 
ATOM      4  C   UNL     1     -32.784   6.377   7.477  1.00  0.00    +0.082 A 
ATOM      5  C   UNL     1     -32.557   7.335   6.483  1.00  0.00    +0.022 A 
ATOM      6  C   UNL     1     -31.336   8.013   6.439  1.00  0.00    +0.017 A 
ENDROOT
BRANCH   1   7
ATOM      7  C   UNL     1     -29.027   8.443   7.396  1.00  0.00    +0.338 C 
ATOM      8  O   UNL     1     -28.069   8.063   8.049  1.00  0.00    -0.246 OA
BRANCH   7   9
ATOM      9  O   UNL     1     -29.057   9.522   6.575  1.00  0.00    -0.462 OA
BRANCH   9  10
ATOM     10  C   UNL     1     -29.192  10.796   7.225  1.00  0.00    +0.230 C 
ATOM     11  C   UNL     1     -29.561  11.862   6.210  1.00  0.00    +0.049 C 
ENDBRANCH   9  10
ENDBRANCH   7   9
ENDBRANCH   1   7
BRANCH   4  12
ATOM     12  S   UNL     1     -34.359   5.548   7.560  1.00  0.00    +0.243 S 
ATOM     13  O   UNL     1     -34.433   4.676   6.407  1.00  0.00    -0.207 OA
ATOM     14  O   UNL     1     -35.367   6.561   7.795  1.00  0.00    -0.207 OA
BRANCH  12  15
ATOM     15  N   UNL     1     -34.231   4.592   8.945  1.00  0.00    -0.198 NA
BRANCH  15  16
ATOM     16  C   UNL     1     -34.932   4.987  10.177  1.00  0.00    +0.099 C 
ATOM     17  C   UNL     1     -33.964   4.951  11.348  1.00  0.00    +0.022 C 
ENDBRANCH  15  16
BRANCH  15  18
ATOM     18  C   UNL     1     -33.711   3.215   8.869  1.00  0.00    +0.099 C 
ATOM     19  C   UNL     1     -34.807   2.165   8.885  1.00  0.00    +0.022 C 
ENDBRANCH  15  18
ENDBRANCH  12  15
ENDBRANCH   4  12
TORSDOF 7
ENDMDL
MODEL 3
REMARK VINA RESULT:    -6.663      6.913      8.056
REMARK INTER + INTRA:         -10.127
REMARK INTER:                  -9.448
REMARK INTRA:                  -0.679
REMARK UNBOUND:                -0.736
REMARK SMILES CCOC(=O)c1ccc(S(=O)(=O)N(CC)CC)cc1
REMARK SMILES IDX 6 1 7 2 8 3 9 4 18 5 19 6 4 7 5 8 3 9 2 10 1 11 10 12 11 13
REMARK SMILES IDX 12 14 13 15 14 16 15 17 16 18 17 19
REMARK H PARENT
ROOT
ATOM      1  C   UNL     1     -26.688   5.287   8.665  1.00  0.00    +0.060 A 
ATOM      2  C   UNL     1     -27.641   4.262   8.759  1.00  0.00    +0.017 A 
ATOM      3  C   UNL     1     -27.288   3.012   9.274  1.00  0.00    +0.022 A 
ATOM      4  C   UNL     1     -25.979   2.792   9.718  1.00  0.00    +0.082 A 
ATOM      5  C   UNL     1     -25.014   3.798   9.602  1.00  0.00    +0.022 A 
ATOM      6  C   UNL     1     -25.371   5.046   9.085  1.00  0.00    +0.017 A 
ENDROOT
BRANCH   1   7
ATOM      7  C   UNL     1     -27.122   6.599   8.109  1.00  0.00    +0.338 C 
ATOM      8  O   UNL     1     -27.938   7.322   8.656  1.00  0.00    -0.246 OA
BRANCH   7   9
ATOM      9  O   UNL     1     -26.481   6.857   6.941  1.00  0.00    -0.462 OA
BRANCH   9  10
ATOM     10  C   UNL     1     -26.094   8.224   6.731  1.00  0.00    +0.230 C 
ATOM     11  C   UNL     1     -24.583   8.330   6.643  1.00  0.00    +0.049 C 
ENDBRANCH   9  10
ENDBRANCH   7   9
ENDBRANCH   1   7
BRANCH   4  12
ATOM     12  S   UNL     1     -25.511   1.186  10.332  1.00  0.00    +0.243 S 
ATOM     13  O   UNL     1     -24.326   1.378  11.142  1.00  0.00    -0.207 OA
ATOM     14  O   UNL     1     -25.504   0.279   9.204  1.00  0.00    -0.207 OA
BRANCH  12  15
ATOM     15  N   UNL     1     -26.789   0.763  11.349  1.00  0.00    -0.198 NA
BRANCH  15  16
ATOM     16  C   UNL     1     -27.669  -0.362  10.994  1.00  0.00    +0.099 C 
ATOM     17  C   UNL     1     -27.243  -1.604  11.757  1.00  0.00    +0.022 C 
ENDBRANCH  15  16
BRANCH  15  18
ATOM     18  C   UNL     1     -26.857   1.269  12.733  1.00  0.00    +0.099 C 
ATOM     19  C   UNL     1     -28.235   1.777  13.113  1.00  0.00    +0.022 C 
ENDBRANCH  15  18
ENDBRANCH  12  15
ENDBRANCH   4  12
TORSDOF 7
ENDMDL
MODEL 4
REMARK VINA RESULT:    -6.377      7.995     10.458
REMARK INTER + INTRA:          -9.723
REMARK INTER:                  -8.923
REMARK INTRA:                  -0.800
REMARK UNBOUND:                -0.736
REMARK SMILES CCOC(=O)c1ccc(S(=O)(=O)N(CC)CC)cc1
REMARK SMILES IDX 6 1 7 2 8 3 9 4 18 5 19 6 4 7 5 8 3 9 2 10 1 11 10 12 11 13
REMARK SMILES IDX 12 14 13 15 14 16 15 17 16 18 17 19
REMARK H PARENT
ROOT
ATOM      1  C   UNL     1     -29.596  -0.016  11.909  1.00  0.00    +0.060 A 
ATOM      2  C   UNL     1     -28.588  -0.867  11.431  1.00  0.00    +0.017 A 
ATOM      3  C   UNL     1     -27.501  -0.350  10.721  1.00  0.00    +0.022 A 
ATOM      4  C   UNL     1     -27.411   1.030  10.506  1.00  0.00    +0.082 A 
ATOM      5  C   UNL     1     -28.424   1.884  10.953  1.00  0.00    +0.022 A 
ATOM      6  C   UNL     1     -29.509   1.362  11.662  1.00  0.00    +0.017 A 
ENDROOT
BRANCH   1   7
ATOM      7  C   UNL     1     -30.729  -0.625  12.660  1.00  0.00    +0.338 C 
ATOM      8  O   UNL     1     -31.382  -1.567  12.242  1.00  0.00    -0.246 OA
BRANCH   7   9
ATOM      9  O   UNL     1     -30.909   0.009  13.845  1.00  0.00    -0.462 OA
BRANCH   9  10
ATOM     10  C   UNL     1     -29.967  -0.321  14.878  1.00  0.00    +0.230 C 
ATOM     11  C   UNL     1     -29.626   0.916  15.688  1.00  0.00    +0.049 C 
ENDBRANCH   9  10
ENDBRANCH   7   9
ENDBRANCH   1   7
BRANCH   4  12
ATOM     12  S   UNL     1     -26.051   1.690   9.562  1.00  0.00    +0.243 S 
ATOM     13  O   UNL     1     -26.549   2.869   8.883  1.00  0.00    -0.207 OA
ATOM     14  O   UNL     1     -25.469   0.592   8.820  1.00  0.00    -0.207 OA
BRANCH  12  15
ATOM     15  N   UNL     1     -24.950   2.180  10.742  1.00  0.00    -0.198 NA
BRANCH  15  16
ATOM     16  C   UNL     1     -23.873   1.270  11.164  1.00  0.00    +0.099 C 
ATOM     17  C   UNL     1     -22.535   1.803  10.680  1.00  0.00    +0.022 C 
ENDBRANCH  15  16
BRANCH  15  18
ATOM     18  C   UNL     1     -24.832   3.599  11.127  1.00  0.00    +0.099 C 
ATOM     19  C   UNL     1     -25.813   4.003  12.212  1.00  0.00    +0.022 C 
ENDBRANCH  15  18
ENDBRANCH  12  15
ENDBRANCH   4  12
TORSDOF 7
ENDMDL
MODEL 5
REMARK VINA RESULT:    -6.296      1.848      2.520
REMARK INTER + INTRA:          -9.609
REMARK INTER:                  -9.213
REMARK INTRA:                  -0.396
REMARK UNBOUND:                -0.736
REMARK SMILES CCOC(=O)c1ccc(S(=O)(=O)N(CC)CC)cc1
REMARK SMILES IDX 6 1 7 2 8 3 9 4 18 5 19 6 4 7 5 8 3 9 2 10 1 11 10 12 11 13
REMARK SMILES IDX 12 14 13 15 14 16 15 17 16 18 17 19
REMARK H PARENT
ROOT
ATOM      1  C   UNL     1     -31.792   7.076   7.710  1.00  0.00    +0.060 A 
ATOM      2  C   UNL     1     -31.453   6.250   8.792  1.00  0.00    +0.017 A 
ATOM      3  C   UNL     1     -32.257   5.157   9.128  1.00  0.00    +0.022 A 
ATOM      4  C   UNL     1     -33.395   4.876   8.364  1.00  0.00    +0.082 A 
ATOM      5  C   UNL     1     -33.757   5.710   7.301  1.00  0.00    +0.022 A 
ATOM      6  C   UNL     1     -32.951   6.802   6.969  1.00  0.00    +0.017 A 
ENDROOT
BRANCH   1   7
ATOM      7  C   UNL     1     -30.896   8.225   7.398  1.00  0.00    +0.338 C 
ATOM      8  O   UNL     1     -29.732   8.095   7.058  1.00  0.00    -0.246 OA
BRANCH   7   9
ATOM      9  O   UNL     1     -31.562   9.398   7.540  1.00  0.00    -0.462 OA
BRANCH   9  10
ATOM     10  C   UNL     1     -31.088  10.485   6.728  1.00  0.00    +0.230 C 
ATOM     11  C   UNL     1     -30.621  11.629   7.609  1.00  0.00    +0.049 C 
ENDBRANCH   9  10
ENDBRANCH   7   9
ENDBRANCH   1   7
BRANCH   4  12
ATOM     12  S   UNL     1     -34.449   3.512   8.816  1.00  0.00    +0.243 S 
ATOM     13  O   UNL     1     -34.462   2.604   7.688  1.00  0.00    -0.207 OA
ATOM     14  O   UNL     1     -35.678   4.073   9.337  1.00  0.00    -0.207 OA
BRANCH  12  15
ATOM     15  N   UNL     1     -33.619   2.774  10.086  1.00  0.00    -0.198 NA
BRANCH  15  16
ATOM     16  C   UNL     1     -33.932   3.137  11.477  1.00  0.00    +0.099 C 
ATOM     17  C   UNL     1     -33.592   1.976  12.397  1.00  0.00    +0.022 C 
ENDBRANCH  15  16
BRANCH  15  18
ATOM     18  C   UNL     1     -32.827   1.550   9.864  1.00  0.00    +0.099 C 
ATOM     19  C   UNL     1     -31.333   1.812   9.804  1.00  0.00    +0.022 C 
ENDBRANCH  15  18
ENDBRANCH  12  15
ENDBRANCH   4  12
TORSDOF 7
ENDMDL
MODEL 6
REMARK VINA RESULT:    -6.230      4.140      6.442
REMARK INTER + INTRA:          -9.516
REMARK INTER:                  -8.756
REMARK INTRA:                  -0.761
REMARK UNBOUND:                -0.736
REMARK SMILES CCOC(=O)c1ccc(S(=O)(=O)N(CC)CC)cc1
REMARK SMILES IDX 6 1 7 2 8 3 9 4 18 5 19 6 4 7 5 8 3 9 2 10 1 11 10 12 11 13
REMARK SMILES IDX 12 14 13 15 14 16 15 17 16 18 17 19
REMARK H PARENT
ROOT
ATOM      1  C   UNL     1     -31.230   1.151  11.640  1.00  0.00    +0.060 A 
ATOM      2  C   UNL     1     -32.538   0.995  12.122  1.00  0.00    +0.017 A 
ATOM      3  C   UNL     1     -33.627   1.449  11.374  1.00  0.00    +0.022 A 
ATOM      4  C   UNL     1     -33.408   2.044  10.127  1.00  0.00    +0.082 A 
ATOM      5  C   UNL     1     -32.107   2.231   9.650  1.00  0.00    +0.022 A 
ATOM      6  C   UNL     1     -31.020   1.776  10.402  1.00  0.00    +0.017 A 
ENDROOT
BRANCH   1   7
ATOM      7  C   UNL     1     -30.108   0.646  12.481  1.00  0.00    +0.338 C 
ATOM      8  O   UNL     1     -30.268  -0.085  13.444  1.00  0.00    -0.246 OA
BRANCH   7   9
ATOM      9  O   UNL     1     -28.920   1.106  12.015  1.00  0.00    -0.462 OA
BRANCH   9  10
ATOM     10  C   UNL     1     -28.105   1.805  12.970  1.00  0.00    +0.230 C 
ATOM     11  C   UNL     1     -27.152   2.743  12.253  1.00  0.00    +0.049 C 
ENDBRANCH   9  10
ENDBRANCH   7   9
ENDBRANCH   1   7
BRANCH   4  12
ATOM     12  S   UNL     1     -34.790   2.668   9.190  1.00  0.00    +0.243 S 
ATOM     13  O   UNL     1     -35.981   2.067   9.753  1.00  0.00    -0.207 OA
ATOM     14  O   UNL     1     -34.466   2.507   7.787  1.00  0.00    -0.207 OA
BRANCH  12  15
ATOM     15  N   UNL     1     -34.802   4.316   9.549  1.00  0.00    -0.198 NA
BRANCH  15  16
ATOM     16  C   UNL     1     -35.305   4.780  10.852  1.00  0.00    +0.099 C 
ATOM     17  C   UNL     1     -34.136   5.170  11.741  1.00  0.00    +0.022 C 
ENDBRANCH  15  16
BRANCH  15  18
ATOM     18  C   UNL     1     -34.029   5.274   8.738  1.00  0.00    +0.099 C 
ATOM     19  C   UNL     1     -34.889   6.054   7.760  1.00  0.00    +0.022 C 
ENDBRANCH  15  18
ENDBRANCH  12  15
ENDBRANCH   4  12
TORSDOF 7
ENDMDL
MODEL 7
REMARK VINA RESULT:    -6.227      7.907     10.524
REMARK INTER + INTRA:          -9.512
REMARK INTER:                  -8.848
REMARK INTRA:                  -0.664
REMARK UNBOUND:                -0.736
REMARK SMILES CCOC(=O)c1ccc(S(=O)(=O)N(CC)CC)cc1
REMARK SMILES IDX 6 1 7 2 8 3 9 4 18 5 19 6 4 7 5 8 3 9 2 10 1 11 10 12 11 13
REMARK SMILES IDX 12 14 13 15 14 16 15 17 16 18 17 19
REMARK H PARENT
ROOT
ATOM      1  C   UNL     1     -29.137   1.350  12.427  1.00  0.00    +0.060 A 
ATOM      2  C   UNL     1     -29.135   1.395  11.024  1.00  0.00    +0.017 A 
ATOM      3  C   UNL     1     -28.046   1.932  10.334  1.00  0.00    +0.022 A 
ATOM      4  C   UNL     1     -26.941   2.407  11.050  1.00  0.00    +0.082 A 
ATOM      5  C   UNL     1     -26.944   2.393  12.449  1.00  0.00    +0.022 A 
ATOM      6  C   UNL     1     -28.037   1.856  13.135  1.00  0.00    +0.017 A 
ENDROOT
BRANCH   1   7
ATOM      7  C   UNL     1     -30.326   0.765  13.108  1.00  0.00    +0.338 C 
ATOM      8  O   UNL     1     -30.394   0.602  14.315  1.00  0.00    -0.246 OA
BRANCH   7   9
ATOM      9  O   UNL     1     -31.290   0.460  12.204  1.00  0.00    -0.462 OA
BRANCH   9  10
ATOM     10  C   UNL     1     -31.752  -0.900  12.221  1.00  0.00    +0.230 C 
ATOM     11  C   UNL     1     -31.666  -1.498  10.829  1.00  0.00    +0.049 C 
ENDBRANCH   9  10
ENDBRANCH   7   9
ENDBRANCH   1   7
BRANCH   4  12
ATOM     12  S   UNL     1     -25.569   3.135  10.177  1.00  0.00    +0.243 S 
ATOM     13  O   UNL     1     -25.126   4.266  10.966  1.00  0.00    -0.207 OA
ATOM     14  O   UNL     1     -25.976   3.302   8.798  1.00  0.00    -0.207 OA
BRANCH  12  15
ATOM     15  N   UNL     1     -24.379   1.941  10.242  1.00  0.00    -0.198 NA
BRANCH  15  16
ATOM     16  C   UNL     1     -23.206   2.120  11.111  1.00  0.00    +0.099 C 
ATOM     17  C   UNL     1     -22.015   1.387  10.518  1.00  0.00    +0.022 C 
ENDBRANCH  15  16
BRANCH  15  18
ATOM     18  C   UNL     1     -24.633   0.589   9.710  1.00  0.00    +0.099 C 
ATOM     19  C   UNL     1     -25.034  -0.406  10.784  1.00  0.00    +0.022 C 
ENDBRANCH  15  18
ENDBRANCH  12  15
ENDBRANCH   4  12
TORSDOF 7
ENDMDL
MODEL 8
REMARK VINA RESULT:    -5.828      4.981      7.441
REMARK INTER + INTRA:          -8.949
REMARK INTER:                  -8.333
REMARK INTRA:                  -0.616
REMARK UNBOUND:                -0.736
REMARK SMILES CCOC(=O)c1ccc(S(=O)(=O)N(CC)CC)cc1
REMARK SMILES IDX 6 1 7 2 8 3 9 4 18 5 19 6 4 7 5 8 3 9 2 10 1 11 10 12 11 13
REMARK SMILES IDX 12 14 13 15 14 16 15 17 16 18 17 19
REMARK H PARENT
ROOT
ATOM      1  C   UNL     1     -30.461   0.978  11.874  1.00  0.00    +0.060 A 
ATOM      2  C   UNL     1     -30.408   1.529  10.586  1.00  0.00    +0.017 A 
ATOM      3  C   UNL     1     -31.564   2.028   9.980  1.00  0.00    +0.022 A 
ATOM      4  C   UNL     1     -32.777   1.994  10.675  1.00  0.00    +0.082 A 
ATOM      5  C   UNL     1     -32.848   1.421  11.949  1.00  0.00    +0.022 A 
ATOM      6  C   UNL     1     -31.689   0.923  12.551  1.00  0.00    +0.017 A 
ENDROOT
BRANCH   1   7
ATOM      7  C   UNL     1     -29.196   0.463  12.470  1.00  0.00    +0.338 C 
ATOM      8  O   UNL     1     -28.629   1.000  13.407  1.00  0.00    -0.246 OA
BRANCH   7   9
ATOM      9  O   UNL     1     -28.793  -0.663  11.831  1.00  0.00    -0.462 OA
BRANCH   9  10
ATOM     10  C   UNL     1     -27.542  -1.215  12.271  1.00  0.00    +0.230 C 
ATOM     11  C   UNL     1     -27.693  -2.703  12.533  1.00  0.00    +0.049 C 
ENDBRANCH   9  10
ENDBRANCH   7   9
ENDBRANCH   1   7
BRANCH   4  12
ATOM     12  S   UNL     1     -34.264   2.586   9.890  1.00  0.00    +0.243 S 
ATOM     13  O   UNL     1     -35.375   2.100  10.681  1.00  0.00    -0.207 OA
ATOM     14  O   UNL     1     -34.159   2.274   8.480  1.00  0.00    -0.207 OA
BRANCH  12  15
ATOM     15  N   UNL     1     -34.170   4.260  10.074  1.00  0.00    -0.198 NA
BRANCH  15  16
ATOM     16  C   UNL     1     -33.924   5.115   8.902  1.00  0.00    +0.099 C 
ATOM     17  C   UNL     1     -32.451   5.482   8.838  1.00  0.00    +0.022 C 
ENDBRANCH  15  16
BRANCH  15  18
ATOM     18  C   UNL     1     -34.647   4.915  11.306  1.00  0.00    +0.099 C 
ATOM     19  C   UNL     1     -36.015   5.553  11.148  1.00  0.00    +0.022 C 
ENDBRANCH  15  18
ENDBRANCH  12  15
ENDBRANCH   4  12
TORSDOF 7
ENDMDL
MODEL 9
REMARK VINA RESULT:    -5.723      5.011      7.327
REMARK INTER + INTRA:          -8.801
REMARK INTER:                  -8.090
REMARK INTRA:                  -0.711
REMARK UNBOUND:                -0.736
REMARK SMILES CCOC(=O)c1ccc(S(=O)(=O)N(CC)CC)cc1
REMARK SMILES IDX 6 1 7 2 8 3 9 4 18 5 19 6 4 7 5 8 3 9 2 10 1 11 10 12 11 13
REMARK SMILES IDX 12 14 13 15 14 16 15 17 16 18 17 19
REMARK H PARENT
ROOT
ATOM      1  C   UNL     1     -33.971   2.885  10.704  1.00  0.00    +0.060 A 
ATOM      2  C   UNL     1     -33.624   2.007  11.742  1.00  0.00    +0.017 A 
ATOM      3  C   UNL     1     -32.370   1.392  11.760  1.00  0.00    +0.022 A 
ATOM      4  C   UNL     1     -31.448   1.673  10.746  1.00  0.00    +0.082 A 
ATOM      5  C   UNL     1     -31.793   2.524   9.691  1.00  0.00    +0.022 A 
ATOM      6  C   UNL     1     -33.049   3.136   9.676  1.00  0.00    +0.017 A 
ENDROOT
BRANCH   1   7
ATOM      7  C   UNL     1     -35.322   3.513  10.737  1.00  0.00    +0.338 C 
ATOM      8  O   UNL     1     -36.359   2.871  10.737  1.00  0.00    -0.246 OA
BRANCH   7   9
ATOM      9  O   UNL     1     -35.217   4.865  10.775  1.00  0.00    -0.462 OA
BRANCH   9  10
ATOM     10  C   UNL     1     -36.136   5.584   9.937  1.00  0.00    +0.230 C 
ATOM     11  C   UNL     1     -35.611   5.638   8.514  1.00  0.00    +0.049 C 
ENDBRANCH   9  10
ENDBRANCH   7   9
ENDBRANCH   1   7
BRANCH   4  12
ATOM     12  S   UNL     1     -29.865   0.855  10.739  1.00  0.00    +0.243 S 
ATOM     13  O   UNL     1     -28.864   1.886  10.560  1.00  0.00    -0.207 OA
ATOM     14  O   UNL     1     -29.960  -0.259   9.819  1.00  0.00    -0.207 OA
BRANCH  12  15
ATOM     15  N   UNL     1     -29.727   0.244  12.305  1.00  0.00    -0.198 NA
BRANCH  15  16
ATOM     16  C   UNL     1     -29.945  -1.189  12.556  1.00  0.00    +0.099 C 
ATOM     17  C   UNL     1     -28.608  -1.911  12.588  1.00  0.00    +0.022 C 
ENDBRANCH  15  16
BRANCH  15  18
ATOM     18  C   UNL     1     -29.081   1.031  13.372  1.00  0.00    +0.099 C 
ATOM     19  C   UNL     1     -29.845   0.995  14.683  1.00  0.00    +0.022 C 
ENDBRANCH  15  18
ENDBRANCH  12  15
ENDBRANCH   4  12
TORSDOF 7
ENDMDL
