REMARK SMILES O=C(O)C=Cc1cc2ccccc2c2ccccc12
REMARK SMILES IDX 2 1 1 2 3 3 4 5 5 6 6 7 19 8 7 9 18 10 14 11 8 12 17 13
REMARK SMILES IDX 15 14 13 15 9 16 16 17 12 18 10 19 11 20
REMARK H PARENT 3 4
ROOT
ATOM      1  C   UNL     1       4.642  -0.543   0.588  1.00  0.00    +0.328 C 
ATOM      2  O   UNL     1       5.376  -0.638   1.555  1.00  0.00    -0.247 OA
ENDROOT
BRANCH   1   3
ATOM      3  O   UNL     1       5.107  -0.662  -0.664  1.00  0.00    -0.478 OA
ATOM      4  H   UNL     1       6.066  -0.821  -0.541  1.00  0.00    +0.297 HD
ENDBRANCH   1   3
BRANCH   1   5
ATOM      5  C   UNL     1       3.197  -0.295   0.667  1.00  0.00    +0.094 C 
ATOM      6  C   UNL     1       2.406  -0.166  -0.409  1.00  0.00    +0.016 C 
BRANCH   6   7
ATOM      7  C   UNL     1       0.958   0.071  -0.290  1.00  0.00    -0.017 A 
ATOM      8  C   UNL     1      -0.000  -0.878  -0.721  1.00  0.00    -0.010 A 
ATOM      9  C   UNL     1       0.545   1.293   0.253  1.00  0.00    +0.017 A 
ATOM     10  C   UNL     1       0.381  -2.127  -1.274  1.00  0.00    +0.009 A 
ATOM     11  C   UNL     1      -1.385  -0.576  -0.592  1.00  0.00    -0.010 A 
ATOM     12  C   UNL     1      -0.807   1.609   0.392  1.00  0.00    -0.017 A 
ATOM     13  C   UNL     1      -0.555  -3.066  -1.699  1.00  0.00    +0.001 A 
ATOM     14  C   UNL     1      -2.307  -1.560  -1.038  1.00  0.00    +0.009 A 
ATOM     15  C   UNL     1      -1.795   0.685  -0.026  1.00  0.00    -0.010 A 
ATOM     16  C   UNL     1      -1.170   2.850   0.946  1.00  0.00    +0.009 A 
ATOM     17  C   UNL     1      -1.903  -2.781  -1.582  1.00  0.00    +0.001 A 
ATOM     18  C   UNL     1      -3.146   1.086   0.150  1.00  0.00    +0.009 A 
ATOM     19  C   UNL     1      -2.507   3.205   1.102  1.00  0.00    +0.001 A 
ATOM     20  C   UNL     1      -3.496   2.321   0.703  1.00  0.00    +0.001 A 
ENDBRANCH   6   7
ENDBRANCH   1   5
TORSDOF 3
