MODEL 1
REMARK VINA RESULT:    -6.832      0.000      0.000
REMARK INTER + INTRA:          -9.951
REMARK INTER:                  -9.228
REMARK INTRA:                  -0.723
REMARK UNBOUND:                -0.723
REMARK SMILES CC(=O)O[C@H]1[C@H]2O[C@H](OC[C@@H]2OC(C)=O)[C@@H]1OC(C)=O
REMARK SMILES IDX 11 1 10 2 9 3 8 4 7 5 6 6 5 7 16 8 12 9 13 10 15 11 14 12
REMARK SMILES IDX 4 13 2 14 3 15 1 16 17 17 18 18 20 19 19 20
REMARK H PARENT
ROOT
ATOM      1  C   UNL     1     -27.923   0.360  11.138  1.00  0.00    +0.235 C 
ATOM      2  C   UNL     1     -26.863  -0.459  11.890  1.00  0.00    +0.211 C 
ATOM      3  O   UNL     1     -26.016  -1.224  11.027  1.00  0.00    -0.345 OA
ATOM      4  C   UNL     1     -25.632  -0.559   9.819  1.00  0.00    +0.296 C 
ATOM      5  O   UNL     1     -26.805  -0.178   9.091  1.00  0.00    -0.337 OA
ATOM      6  C   UNL     1     -27.299   0.945   9.858  1.00  0.00    +0.209 C 
ATOM      7  C   UNL     1     -26.043   1.777  10.172  1.00  0.00    +0.255 C 
ATOM      8  C   UNL     1     -24.893   0.772  10.017  1.00  0.00    +0.276 C 
ENDROOT
BRANCH   1   9
ATOM      9  O   UNL     1     -29.002  -0.545  10.804  1.00  0.00    -0.457 OA
BRANCH   9  10
ATOM     10  C   UNL     1     -30.194   0.035  10.505  1.00  0.00    +0.303 C 
ATOM     11  O   UNL     1     -30.608   1.081  10.981  1.00  0.00    -0.253 OA
ATOM     12  C   UNL     1     -30.935  -0.796   9.504  1.00  0.00    +0.139 C 
ENDBRANCH   9  10
ENDBRANCH   1   9
BRANCH   7  13
ATOM     13  O   UNL     1     -25.864   2.821   9.189  1.00  0.00    -0.455 OA
BRANCH  13  14
ATOM     14  C   UNL     1     -25.913   4.086   9.690  1.00  0.00    +0.303 C 
ATOM     15  O   UNL     1     -26.220   4.369  10.837  1.00  0.00    -0.253 OA
ATOM     16  C   UNL     1     -25.535   5.078   8.634  1.00  0.00    +0.139 C 
ENDBRANCH  13  14
ENDBRANCH   7  13
BRANCH   8  17
ATOM     17  O   UNL     1     -24.030   0.803  11.162  1.00  0.00    -0.453 OA
BRANCH  17  18
ATOM     18  C   UNL     1     -22.997   1.683  11.062  1.00  0.00    +0.303 C 
ATOM     19  O   UNL     1     -23.030   2.850  11.423  1.00  0.00    -0.253 OA
ATOM     20  C   UNL     1     -21.805   1.013  10.450  1.00  0.00    +0.139 C 
ENDBRANCH  17  18
ENDBRANCH   8  17
TORSDOF 6
ENDMDL
MODEL 2
REMARK VINA RESULT:    -6.818      8.808     11.192
REMARK INTER + INTRA:          -9.933
REMARK INTER:                  -9.117
REMARK INTRA:                  -0.815
REMARK UNBOUND:                -0.723
REMARK SMILES CC(=O)O[C@H]1[C@H]2O[C@H](OC[C@@H]2OC(C)=O)[C@@H]1OC(C)=O
REMARK SMILES IDX 11 1 10 2 9 3 8 4 7 5 6 6 5 7 16 8 12 9 13 10 15 11 14 12
REMARK SMILES IDX 4 13 2 14 3 15 1 16 17 17 18 18 20 19 19 20
REMARK H PARENT
ROOT
ATOM      1  C   UNL     1     -34.654   5.210   6.758  1.00  0.00    +0.235 C 
ATOM      2  C   UNL     1     -34.786   3.686   6.892  1.00  0.00    +0.211 C 
ATOM      3  O   UNL     1     -34.121   3.157   8.044  1.00  0.00    -0.345 OA
ATOM      4  C   UNL     1     -34.237   3.958   9.225  1.00  0.00    +0.296 C 
ATOM      5  O   UNL     1     -33.726   5.269   8.963  1.00  0.00    -0.337 OA
ATOM      6  C   UNL     1     -34.769   5.856   8.150  1.00  0.00    +0.209 C 
ATOM      7  C   UNL     1     -36.077   5.450   8.853  1.00  0.00    +0.255 C 
ATOM      8  C   UNL     1     -35.675   4.226   9.689  1.00  0.00    +0.276 C 
ENDROOT
BRANCH   1   9
ATOM      9  O   UNL     1     -33.351   5.476   6.185  1.00  0.00    -0.457 OA
BRANCH   9  10
ATOM     10  C   UNL     1     -33.268   6.562   5.373  1.00  0.00    +0.303 C 
ATOM     11  O   UNL     1     -34.085   6.864   4.516  1.00  0.00    -0.253 OA
ATOM     12  C   UNL     1     -32.024   7.338   5.674  1.00  0.00    +0.139 C 
ENDBRANCH   9  10
ENDBRANCH   1   9
BRANCH   7  13
ATOM     13  O   UNL     1     -36.513   6.489   9.757  1.00  0.00    -0.455 OA
BRANCH  13  14
ATOM     14  C   UNL     1     -37.733   6.273  10.322  1.00  0.00    +0.303 C 
ATOM     15  O   UNL     1     -37.932   6.141  11.520  1.00  0.00    -0.253 OA
ATOM     16  C   UNL     1     -38.794   6.224   9.266  1.00  0.00    +0.139 C 
ENDBRANCH  13  14
ENDBRANCH   7  13
BRANCH   8  17
ATOM     17  O   UNL     1     -36.581   3.137   9.466  1.00  0.00    -0.453 OA
BRANCH  17  18
ATOM     18  C   UNL     1     -36.858   2.401  10.577  1.00  0.00    +0.303 C 
ATOM     19  O   UNL     1     -36.082   1.627  11.119  1.00  0.00    -0.253 OA
ATOM     20  C   UNL     1     -38.251   2.681  11.049  1.00  0.00    +0.139 C 
ENDBRANCH  17  18
ENDBRANCH   8  17
TORSDOF 6
ENDMDL
MODEL 3
REMARK VINA RESULT:    -6.758      1.872      4.123
REMARK INTER + INTRA:          -9.852
REMARK INTER:                  -9.228
REMARK INTRA:                  -0.624
REMARK UNBOUND:                -0.723
REMARK SMILES CC(=O)O[C@H]1[C@H]2O[C@H](OC[C@@H]2OC(C)=O)[C@@H]1OC(C)=O
REMARK SMILES IDX 11 1 10 2 9 3 8 4 7 5 6 6 5 7 16 8 12 9 13 10 15 11 14 12
REMARK SMILES IDX 4 13 2 14 3 15 1 16 17 17 18 18 20 19 19 20
REMARK H PARENT
ROOT
ATOM      1  C   UNL     1     -26.791   1.226  11.105  1.00  0.00    +0.235 C 
ATOM      2  C   UNL     1     -27.541   2.245  10.234  1.00  0.00    +0.211 C 
ATOM      3  O   UNL     1     -27.418   3.592  10.702  1.00  0.00    -0.345 OA
ATOM      4  C   UNL     1     -26.120   3.941  11.194  1.00  0.00    +0.296 C 
ATOM      5  O   UNL     1     -25.759   3.052  12.257  1.00  0.00    -0.337 OA
ATOM      6  C   UNL     1     -25.447   1.829  11.550  1.00  0.00    +0.209 C 
ATOM      7  C   UNL     1     -24.606   2.287  10.344  1.00  0.00    +0.255 C 
ATOM      8  C   UNL     1     -24.975   3.769  10.186  1.00  0.00    +0.276 C 
ENDROOT
BRANCH   1   9
ATOM      9  O   UNL     1     -27.626   0.952  12.255  1.00  0.00    -0.457 OA
BRANCH   9  10
ATOM     10  C   UNL     1     -28.807   0.331  11.998  1.00  0.00    +0.303 C 
ATOM     11  O   UNL     1     -29.912   0.822  12.167  1.00  0.00    -0.253 OA
ATOM     12  C   UNL     1     -28.560  -1.052  11.480  1.00  0.00    +0.139 C 
ENDBRANCH   9  10
ENDBRANCH   1   9
BRANCH   7  13
ATOM     13  O   UNL     1     -23.196   2.204  10.645  1.00  0.00    -0.455 OA
BRANCH  13  14
ATOM     14  C   UNL     1     -22.527   1.232   9.965  1.00  0.00    +0.303 C 
ATOM     15  O   UNL     1     -22.269   1.270   8.772  1.00  0.00    -0.253 OA
ATOM     16  C   UNL     1     -22.153   0.115  10.889  1.00  0.00    +0.139 C 
ENDBRANCH  13  14
ENDBRANCH   7  13
BRANCH   8  17
ATOM     17  O   UNL     1     -25.334   4.063   8.829  1.00  0.00    -0.453 OA
BRANCH  17  18
ATOM     18  C   UNL     1     -25.465   5.391   8.559  1.00  0.00    +0.303 C 
ATOM     19  O   UNL     1     -24.600   6.234   8.742  1.00  0.00    -0.253 OA
ATOM     20  C   UNL     1     -26.825   5.672   7.996  1.00  0.00    +0.139 C 
ENDBRANCH  17  18
ENDBRANCH   8  17
TORSDOF 6
ENDMDL
MODEL 4
REMARK VINA RESULT:    -6.654      2.137      5.244
REMARK INTER + INTRA:          -9.711
REMARK INTER:                  -8.923
REMARK INTRA:                  -0.788
REMARK UNBOUND:                -0.723
REMARK SMILES CC(=O)O[C@H]1[C@H]2O[C@H](OC[C@@H]2OC(C)=O)[C@@H]1OC(C)=O
REMARK SMILES IDX 11 1 10 2 9 3 8 4 7 5 6 6 5 7 16 8 12 9 13 10 15 11 14 12
REMARK SMILES IDX 4 13 2 14 3 15 1 16 17 17 18 18 20 19 19 20
REMARK H PARENT
ROOT
ATOM      1  C   UNL     1     -26.825   3.646   9.901  1.00  0.00    +0.235 C 
ATOM      2  C   UNL     1     -26.483   2.420   9.042  1.00  0.00    +0.211 C 
ATOM      3  O   UNL     1     -25.376   1.664   9.545  1.00  0.00    -0.345 OA
ATOM      4  C   UNL     1     -25.338   1.531  10.970  1.00  0.00    +0.296 C 
ATOM      5  O   UNL     1     -25.316   2.831  11.569  1.00  0.00    -0.337 OA
ATOM      6  C   UNL     1     -26.678   3.283  11.389  1.00  0.00    +0.209 C 
ATOM      7  C   UNL     1     -27.539   2.061  11.759  1.00  0.00    +0.255 C 
ATOM      8  C   UNL     1     -26.577   0.876  11.594  1.00  0.00    +0.276 C 
ENDROOT
BRANCH   1   9
ATOM      9  O   UNL     1     -25.889   4.692   9.543  1.00  0.00    -0.457 OA
BRANCH   9  10
ATOM     10  C   UNL     1     -26.333   5.603   8.638  1.00  0.00    +0.303 C 
ATOM     11  O   UNL     1     -27.356   6.261   8.745  1.00  0.00    -0.253 OA
ATOM     12  C   UNL     1     -25.386   5.684   7.481  1.00  0.00    +0.139 C 
ENDBRANCH   9  10
ENDBRANCH   1   9
BRANCH   7  13
ATOM     13  O   UNL     1     -27.944   2.123  13.144  1.00  0.00    -0.455 OA
BRANCH  13  14
ATOM     14  C   UNL     1     -29.051   1.389  13.445  1.00  0.00    +0.303 C 
ATOM     15  O   UNL     1     -29.876   1.008  12.630  1.00  0.00    -0.253 OA
ATOM     16  C   UNL     1     -29.109   1.116  14.916  1.00  0.00    +0.139 C 
ENDBRANCH  13  14
ENDBRANCH   7  13
BRANCH   8  17
ATOM     17  O   UNL     1     -27.170  -0.153  10.789  1.00  0.00    -0.453 OA
BRANCH  17  18
ATOM     18  C   UNL     1     -26.774  -1.415  11.113  1.00  0.00    +0.303 C 
ATOM     19  O   UNL     1     -25.978  -2.087  10.475  1.00  0.00    -0.253 OA
ATOM     20  C   UNL     1     -27.452  -1.862  12.372  1.00  0.00    +0.139 C 
ENDBRANCH  17  18
ENDBRANCH   8  17
TORSDOF 6
ENDMDL
MODEL 5
REMARK VINA RESULT:    -6.487      1.668      4.974
REMARK INTER + INTRA:          -9.485
REMARK INTER:                  -9.041
REMARK INTRA:                  -0.444
REMARK UNBOUND:                -0.723
REMARK SMILES CC(=O)O[C@H]1[C@H]2O[C@H](OC[C@@H]2OC(C)=O)[C@@H]1OC(C)=O
REMARK SMILES IDX 11 1 10 2 9 3 8 4 7 5 6 6 5 7 16 8 12 9 13 10 15 11 14 12
REMARK SMILES IDX 4 13 2 14 3 15 1 16 17 17 18 18 20 19 19 20
REMARK H PARENT
ROOT
ATOM      1  C   UNL     1     -26.069   3.154  10.079  1.00  0.00    +0.235 C 
ATOM      2  C   UNL     1     -27.449   2.704  10.582  1.00  0.00    +0.211 C 
ATOM      3  O   UNL     1     -27.912   1.496   9.969  1.00  0.00    -0.345 OA
ATOM      4  C   UNL     1     -26.902   0.502   9.765  1.00  0.00    +0.296 C 
ATOM      5  O   UNL     1     -25.849   1.048   8.965  1.00  0.00    -0.337 OA
ATOM      6  C   UNL     1     -25.167   1.921   9.895  1.00  0.00    +0.209 C 
ATOM      7  C   UNL     1     -25.069   1.096  11.192  1.00  0.00    +0.255 C 
ATOM      8  C   UNL     1     -26.176   0.044  11.038  1.00  0.00    +0.276 C 
ENDROOT
BRANCH   1   9
ATOM      9  O   UNL     1     -26.275   3.822   8.811  1.00  0.00    -0.457 OA
BRANCH   9  10
ATOM     10  C   UNL     1     -25.666   5.028   8.669  1.00  0.00    +0.303 C 
ATOM     11  O   UNL     1     -24.703   5.412   9.315  1.00  0.00    -0.253 OA
ATOM     12  C   UNL     1     -26.349   5.828   7.603  1.00  0.00    +0.139 C 
ENDBRANCH   9  10
ENDBRANCH   1   9
BRANCH   7  13
ATOM     13  O   UNL     1     -23.801   0.408  11.263  1.00  0.00    -0.455 OA
BRANCH  13  14
ATOM     14  C   UNL     1     -22.730   1.148  10.862  1.00  0.00    +0.303 C 
ATOM     15  O   UNL     1     -22.389   2.207  11.365  1.00  0.00    -0.253 OA
ATOM     16  C   UNL     1     -22.033   0.477   9.719  1.00  0.00    +0.139 C 
ENDBRANCH  13  14
ENDBRANCH   7  13
BRANCH   8  17
ATOM     17  O   UNL     1     -27.005   0.002  12.208  1.00  0.00    -0.453 OA
BRANCH  17  18
ATOM     18  C   UNL     1     -27.717  -1.150  12.349  1.00  0.00    +0.303 C 
ATOM     19  O   UNL     1     -27.233  -2.268  12.449  1.00  0.00    -0.253 OA
ATOM     20  C   UNL     1     -29.184  -0.851  12.372  1.00  0.00    +0.139 C 
ENDBRANCH  17  18
ENDBRANCH   8  17
TORSDOF 6
ENDMDL
MODEL 6
REMARK VINA RESULT:    -6.407      6.646     10.574
REMARK INTER + INTRA:          -9.378
REMARK INTER:                  -8.655
REMARK INTRA:                  -0.723
REMARK UNBOUND:                -0.723
REMARK SMILES CC(=O)O[C@H]1[C@H]2O[C@H](OC[C@@H]2OC(C)=O)[C@@H]1OC(C)=O
REMARK SMILES IDX 11 1 10 2 9 3 8 4 7 5 6 6 5 7 16 8 12 9 13 10 15 11 14 12
REMARK SMILES IDX 4 13 2 14 3 15 1 16 17 17 18 18 20 19 19 20
REMARK H PARENT
ROOT
ATOM      1  C   UNL     1     -34.594   5.354   8.500  1.00  0.00    +0.235 C 
ATOM      2  C   UNL     1     -35.897   5.546   9.289  1.00  0.00    +0.211 C 
ATOM      3  O   UNL     1     -36.986   4.762   8.791  1.00  0.00    -0.345 OA
ATOM      4  C   UNL     1     -36.631   3.439   8.373  1.00  0.00    +0.296 C 
ATOM      5  O   UNL     1     -35.619   3.514   7.363  1.00  0.00    -0.337 OA
ATOM      6  C   UNL     1     -34.441   3.869   8.125  1.00  0.00    +0.209 C 
ATOM      7  C   UNL     1     -34.502   2.964   9.369  1.00  0.00    +0.255 C 
ATOM      8  C   UNL     1     -35.982   2.568   9.458  1.00  0.00    +0.276 C 
ENDROOT
BRANCH   1   9
ATOM      9  O   UNL     1     -34.694   6.167   7.306  1.00  0.00    -0.457 OA
BRANCH   9  10
ATOM     10  C   UNL     1     -33.565   6.267   6.558  1.00  0.00    +0.303 C 
ATOM     11  O   UNL     1     -32.447   6.495   6.995  1.00  0.00    -0.253 OA
ATOM     12  C   UNL     1     -33.885   6.059   5.110  1.00  0.00    +0.139 C 
ENDBRANCH   9  10
ENDBRANCH   1   9
BRANCH   7  13
ATOM     13  O   UNL     1     -33.727   1.762   9.163  1.00  0.00    -0.455 OA
BRANCH  13  14
ATOM     14  C   UNL     1     -32.624   1.656   9.954  1.00  0.00    +0.303 C 
ATOM     15  O   UNL     1     -31.485   1.497   9.544  1.00  0.00    -0.253 OA
ATOM     16  C   UNL     1     -33.007   1.765  11.398  1.00  0.00    +0.139 C 
ENDBRANCH  13  14
ENDBRANCH   7  13
BRANCH   8  17
ATOM     17  O   UNL     1     -36.491   2.795  10.780  1.00  0.00    -0.453 OA
BRANCH  17  18
ATOM     18  C   UNL     1     -37.709   2.233  11.016  1.00  0.00    +0.303 C 
ATOM     19  O   UNL     1     -38.756   2.851  11.136  1.00  0.00    -0.253 OA
ATOM     20  C   UNL     1     -37.583   0.743  11.100  1.00  0.00    +0.139 C 
ENDBRANCH  17  18
ENDBRANCH   8  17
TORSDOF 6
ENDMDL
MODEL 7
REMARK VINA RESULT:    -6.329      1.706      5.916
REMARK INTER + INTRA:          -9.273
REMARK INTER:                  -8.615
REMARK INTRA:                  -0.658
REMARK UNBOUND:                -0.723
REMARK SMILES CC(=O)O[C@H]1[C@H]2O[C@H](OC[C@@H]2OC(C)=O)[C@@H]1OC(C)=O
REMARK SMILES IDX 11 1 10 2 9 3 8 4 7 5 6 6 5 7 16 8 12 9 13 10 15 11 14 12
REMARK SMILES IDX 4 13 2 14 3 15 1 16 17 17 18 18 20 19 19 20
REMARK H PARENT
ROOT
ATOM      1  C   UNL     1     -25.424   1.099  11.217  1.00  0.00    +0.235 C 
ATOM      2  C   UNL     1     -26.114   1.525   9.912  1.00  0.00    +0.211 C 
ATOM      3  O   UNL     1     -26.558   0.422   9.116  1.00  0.00    -0.345 OA
ATOM      4  C   UNL     1     -27.116  -0.667   9.858  1.00  0.00    +0.296 C 
ATOM      5  O   UNL     1     -26.154  -1.143  10.805  1.00  0.00    -0.337 OA
ATOM      6  C   UNL     1     -26.169  -0.108  11.815  1.00  0.00    +0.209 C 
ATOM      7  C   UNL     1     -27.663   0.200  12.026  1.00  0.00    +0.255 C 
ATOM      8  C   UNL     1     -28.323  -0.304  10.735  1.00  0.00    +0.276 C 
ENDROOT
BRANCH   1   9
ATOM      9  O   UNL     1     -24.064   0.735  10.880  1.00  0.00    -0.457 OA
BRANCH   9  10
ATOM     10  C   UNL     1     -23.153   1.742  10.914  1.00  0.00    +0.303 C 
ATOM     11  O   UNL     1     -23.369   2.875  11.318  1.00  0.00    -0.253 OA
ATOM     12  C   UNL     1     -21.838   1.266  10.381  1.00  0.00    +0.139 C 
ENDBRANCH   9  10
ENDBRANCH   1   9
BRANCH   7  13
ATOM     13  O   UNL     1     -28.190  -0.568  13.130  1.00  0.00    -0.455 OA
BRANCH  13  14
ATOM     14  C   UNL     1     -28.267   0.112  14.308  1.00  0.00    +0.303 C 
ATOM     15  O   UNL     1     -27.566  -0.104  15.284  1.00  0.00    -0.253 OA
ATOM     16  C   UNL     1     -29.332   1.162  14.232  1.00  0.00    +0.139 C 
ENDBRANCH  13  14
ENDBRANCH   7  13
BRANCH   8  17
ATOM     17  O   UNL     1     -29.179   0.701  10.174  1.00  0.00    -0.453 OA
BRANCH  17  18
ATOM     18  C   UNL     1     -30.507   0.491  10.392  1.00  0.00    +0.303 C 
ATOM     19  O   UNL     1     -31.218   1.177  11.110  1.00  0.00    -0.253 OA
ATOM     20  C   UNL     1     -30.975  -0.702   9.616  1.00  0.00    +0.139 C 
ENDBRANCH  17  18
ENDBRANCH   8  17
TORSDOF 6
ENDMDL
MODEL 8
REMARK VINA RESULT:    -6.215      2.161      5.174
REMARK INTER + INTRA:          -9.119
REMARK INTER:                  -8.573
REMARK INTRA:                  -0.546
REMARK UNBOUND:                -0.723
REMARK SMILES CC(=O)O[C@H]1[C@H]2O[C@H](OC[C@@H]2OC(C)=O)[C@@H]1OC(C)=O
REMARK SMILES IDX 11 1 10 2 9 3 8 4 7 5 6 6 5 7 16 8 12 9 13 10 15 11 14 12
REMARK SMILES IDX 4 13 2 14 3 15 1 16 17 17 18 18 20 19 19 20
REMARK H PARENT
ROOT
ATOM      1  C   UNL     1     -24.174  -0.343  10.798  1.00  0.00    +0.235 C 
ATOM      2  C   UNL     1     -23.757   1.015  10.215  1.00  0.00    +0.211 C 
ATOM      3  O   UNL     1     -24.551   1.421   9.095  1.00  0.00    -0.345 OA
ATOM      4  C   UNL     1     -25.947   1.129   9.212  1.00  0.00    +0.296 C 
ATOM      5  O   UNL     1     -26.125  -0.277   9.414  1.00  0.00    -0.337 OA
ATOM      6  C   UNL     1     -25.709  -0.451  10.788  1.00  0.00    +0.209 C 
ATOM      7  C   UNL     1     -26.362   0.724  11.538  1.00  0.00    +0.255 C 
ATOM      8  C   UNL     1     -26.641   1.751  10.432  1.00  0.00    +0.276 C 
ENDROOT
BRANCH   1   9
ATOM      9  O   UNL     1     -23.591  -1.366   9.955  1.00  0.00    -0.457 OA
BRANCH   9  10
ATOM     10  C   UNL     1     -22.287  -1.660  10.193  1.00  0.00    +0.303 C 
ATOM     11  O   UNL     1     -21.687  -1.418  11.229  1.00  0.00    -0.253 OA
ATOM     12  C   UNL     1     -21.682  -2.325   8.996  1.00  0.00    +0.139 C 
ENDBRANCH   9  10
ENDBRANCH   1   9
BRANCH   7  13
ATOM     13  O   UNL     1     -27.627   0.324  12.110  1.00  0.00    -0.455 OA
BRANCH  13  14
ATOM     14  C   UNL     1     -27.951   0.957  13.271  1.00  0.00    +0.303 C 
ATOM     15  O   UNL     1     -28.222   2.144  13.365  1.00  0.00    -0.253 OA
ATOM     16  C   UNL     1     -27.928  -0.010  14.414  1.00  0.00    +0.139 C 
ENDBRANCH  13  14
ENDBRANCH   7  13
BRANCH   8  17
ATOM     17  O   UNL     1     -26.142   3.044  10.799  1.00  0.00    -0.453 OA
BRANCH  17  18
ATOM     18  C   UNL     1     -26.443   4.034   9.914  1.00  0.00    +0.303 C 
ATOM     19  O   UNL     1     -27.555   4.255   9.458  1.00  0.00    -0.253 OA
ATOM     20  C   UNL     1     -25.213   4.822   9.582  1.00  0.00    +0.139 C 
ENDBRANCH  17  18
ENDBRANCH   8  17
TORSDOF 6
ENDMDL
MODEL 9
REMARK VINA RESULT:    -6.068      2.635      6.131
REMARK INTER + INTRA:          -8.919
REMARK INTER:                  -8.196
REMARK INTRA:                  -0.723
REMARK UNBOUND:                -0.723
REMARK SMILES CC(=O)O[C@H]1[C@H]2O[C@H](OC[C@@H]2OC(C)=O)[C@@H]1OC(C)=O
REMARK SMILES IDX 11 1 10 2 9 3 8 4 7 5 6 6 5 7 16 8 12 9 13 10 15 11 14 12
REMARK SMILES IDX 4 13 2 14 3 15 1 16 17 17 18 18 20 19 19 20
REMARK H PARENT
ROOT
ATOM      1  C   UNL     1     -25.716   0.747  11.239  1.00  0.00    +0.235 C 
ATOM      2  C   UNL     1     -25.873   2.042  12.050  1.00  0.00    +0.211 C 
ATOM      3  O   UNL     1     -27.003   2.827  11.656  1.00  0.00    -0.345 OA
ATOM      4  C   UNL     1     -28.178   2.072  11.341  1.00  0.00    +0.296 C 
ATOM      5  O   UNL     1     -27.881   1.140  10.297  1.00  0.00    -0.337 OA
ATOM      6  C   UNL     1     -27.104   0.133  10.987  1.00  0.00    +0.209 C 
ATOM      7  C   UNL     1     -27.865  -0.101  12.305  1.00  0.00    +0.255 C 
ATOM      8  C   UNL     1     -28.698   1.178  12.475  1.00  0.00    +0.276 C 
ENDROOT
BRANCH   1   9
ATOM      9  O   UNL     1     -25.088   1.104   9.984  1.00  0.00    -0.457 OA
BRANCH   9  10
ATOM     10  C   UNL     1     -23.735   0.983   9.940  1.00  0.00    +0.303 C 
ATOM     11  O   UNL     1     -22.995   1.618   9.205  1.00  0.00    -0.253 OA
ATOM     12  C   UNL     1     -23.277  -0.048  10.925  1.00  0.00    +0.139 C 
ENDBRANCH   9  10
ENDBRANCH   1   9
BRANCH   7  13
ATOM     13  O   UNL     1     -28.774  -1.216  12.178  1.00  0.00    -0.455 OA
BRANCH  13  14
ATOM     14  C   UNL     1     -28.459  -2.295  12.946  1.00  0.00    +0.303 C 
ATOM     15  O   UNL     1     -27.409  -2.915  12.879  1.00  0.00    -0.253 OA
ATOM     16  C   UNL     1     -29.582  -2.611  13.885  1.00  0.00    +0.139 C 
ENDBRANCH  13  14
ENDBRANCH   7  13
BRANCH   8  17
ATOM     17  O   UNL     1     -28.524   1.728  13.788  1.00  0.00    -0.453 OA
BRANCH  17  18
ATOM     18  C   UNL     1     -29.194   1.062  14.769  1.00  0.00    +0.303 C 
ATOM     19  O   UNL     1     -28.702   0.674  15.818  1.00  0.00    -0.253 OA
ATOM     20  C   UNL     1     -30.629   0.879  14.380  1.00  0.00    +0.139 C 
ENDBRANCH  17  18
ENDBRANCH   8  17
TORSDOF 6
ENDMDL
