REMARK SMILES Cc1n[nH]c2ncnc(N)c12
REMARK SMILES IDX 1 1 2 2 3 3 4 4 5 5 6 6 7 7 8 8 9 9 11 10 10 12
REMARK H PARENT 4 11 10 13 10 14
ROOT
ATOM      1  C   UNL     1       2.356   0.781  -0.123  1.00  0.00    +0.069 C 
ATOM      2  C   UNL     1       0.916   1.013   0.144  1.00  0.00    +0.072 A 
ATOM      3  N   UNL     1       0.496   2.218   0.565  1.00  0.00    -0.178 NA
ATOM      4  N   UNL     1      -0.839   2.066   0.677  1.00  0.00    -0.260 N 
ATOM      5  C   UNL     1      -1.280   0.817   0.358  1.00  0.00    +0.160 A 
ATOM      6  N   UNL     1      -2.551   0.387   0.379  1.00  0.00    -0.217 NA
ATOM      7  C   UNL     1      -2.627  -0.901   0.000  1.00  0.00    +0.226 A 
ATOM      8  N   UNL     1      -1.621  -1.726  -0.356  1.00  0.00    -0.219 NA
ATOM      9  C   UNL     1      -0.360  -1.242  -0.358  1.00  0.00    +0.138 A 
ATOM     10  C   UNL     1      -0.156   0.091   0.011  1.00  0.00    +0.084 A 
ATOM     11  H   UNL     1      -1.402   2.852   0.976  1.00  0.00    +0.192 HD
ENDROOT
BRANCH   9  12
ATOM     12  N   UNL     1       0.650  -2.123  -0.717  1.00  0.00    -0.383 N 
ATOM     13  H   UNL     1       1.536  -1.974  -0.254  1.00  0.00    +0.158 HD
ATOM     14  H   UNL     1       0.303  -3.076  -0.704  1.00  0.00    +0.158 HD
ENDBRANCH   9  12
TORSDOF 1
