REMARK SMILES Clc1cc(Cl)c(Cl)nc1Cl
REMARK SMILES IDX 1 1 2 2 9 3 10 4 8 5 6 6 7 7 4 8 3 9 5 10
REMARK H PARENT
ROOT
ATOM      1 Cl   UNL     1      -2.433   1.771   0.156  1.00  0.00    -0.081 Cl
ATOM      2  C   UNL     1      -1.113   0.671   0.042  1.00  0.00    +0.080 A 
ATOM      3  C   UNL     1      -1.267  -0.680  -0.258  1.00  0.00    +0.149 A 
ATOM      4 Cl   UNL     1      -2.796  -1.410  -0.550  1.00  0.00    -0.061 Cl
ATOM      5  N   UNL     1      -0.241  -1.557  -0.351  1.00  0.00    -0.221 NA
ATOM      6  C   UNL     1       0.997  -1.059  -0.134  1.00  0.00    +0.149 A 
ATOM      7 Cl   UNL     1       2.230  -2.250  -0.275  1.00  0.00    -0.061 Cl
ATOM      8  C   UNL     1       1.259   0.274   0.172  1.00  0.00    +0.080 A 
ATOM      9  C   UNL     1       0.178   1.151   0.260  1.00  0.00    +0.047 A 
ATOM     10 Cl   UNL     1       2.844   0.890   0.445  1.00  0.00    -0.081 Cl
ENDROOT
TORSDOF 0
