MODEL 1
REMARK VINA RESULT:    -3.908      0.000      0.000
REMARK INTER + INTRA:          -4.711
REMARK INTER:                  -4.593
REMARK INTRA:                  -0.119
REMARK UNBOUND:                -0.119
REMARK SMILES N#CSCCSC#N
REMARK SMILES IDX 4 1 3 2 1 3 2 4 5 5 6 6 7 7 8 8
REMARK H PARENT
ROOT
ATOM      1  C   UNL     1     -28.360  10.436   7.037  1.00  0.00    +0.098 C 
ENDROOT
BRANCH   1   2
ATOM      2  S   UNL     1     -29.627  11.483   6.250  1.00  0.00    -0.046 SA
ATOM      3  N   UNL     1     -27.865  13.308   4.956  1.00  0.00    -0.185 NA
ATOM      4  C   UNL     1     -28.600  12.582   5.481  1.00  0.00    +0.133 C 
ENDBRANCH   1   2
BRANCH   1   5
ATOM      5  C   UNL     1     -27.525   9.689   5.996  1.00  0.00    +0.098 C 
BRANCH   5   6
ATOM      6  S   UNL     1     -25.768  10.164   6.082  1.00  0.00    -0.046 SA
ATOM      7  C   UNL     1     -25.169   8.772   6.829  1.00  0.00    +0.133 C 
ATOM      8  N   UNL     1     -24.797   7.809   7.354  1.00  0.00    -0.185 NA
ENDBRANCH   5   6
ENDBRANCH   1   5
TORSDOF 3
ENDMDL
MODEL 2
REMARK VINA RESULT:    -3.898      2.786      4.166
REMARK INTER + INTRA:          -4.701
REMARK INTER:                  -4.493
REMARK INTRA:                  -0.207
REMARK UNBOUND:                -0.119
REMARK SMILES N#CSCCSC#N
REMARK SMILES IDX 4 1 3 2 1 3 2 4 5 5 6 6 7 7 8 8
REMARK H PARENT
ROOT
ATOM      1  C   UNL     1     -27.364   9.531   5.688  1.00  0.00    +0.098 C 
ENDROOT
BRANCH   1   2
ATOM      2  S   UNL     1     -25.732  10.228   6.101  1.00  0.00    -0.046 SA
ATOM      3  N   UNL     1     -24.644   7.926   7.377  1.00  0.00    -0.185 NA
ATOM      4  C   UNL     1     -25.070   8.877   6.869  1.00  0.00    +0.133 C 
ENDBRANCH   1   2
BRANCH   1   5
ATOM      5  C   UNL     1     -28.443  10.020   6.656  1.00  0.00    +0.098 C 
BRANCH   5   6
ATOM      6  S   UNL     1     -29.639   8.701   7.044  1.00  0.00    -0.046 SA
ATOM      7  C   UNL     1     -28.613   7.682   7.917  1.00  0.00    +0.133 C 
ATOM      8  N   UNL     1     -27.877   7.003   8.499  1.00  0.00    -0.185 NA
ENDBRANCH   5   6
ENDBRANCH   1   5
TORSDOF 3
ENDMDL
MODEL 3
REMARK VINA RESULT:    -3.746      2.112      4.922
REMARK INTER + INTRA:          -4.521
REMARK INTER:                  -4.464
REMARK INTRA:                  -0.057
REMARK UNBOUND:                -0.119
REMARK SMILES N#CSCCSC#N
REMARK SMILES IDX 4 1 3 2 1 3 2 4 5 5 6 6 7 7 8 8
REMARK H PARENT
ROOT
ATOM      1  C   UNL     1     -27.128   8.684   5.387  1.00  0.00    +0.098 C 
ENDROOT
BRANCH   1   2
ATOM      2  S   UNL     1     -25.963   7.935   6.571  1.00  0.00    -0.046 SA
ATOM      3  N   UNL     1     -27.884   6.977   8.442  1.00  0.00    -0.185 NA
ATOM      4  C   UNL     1     -27.085   7.365   7.698  1.00  0.00    +0.133 C 
ENDBRANCH   1   2
BRANCH   1   5
ATOM      5  C   UNL     1     -27.545  10.090   5.824  1.00  0.00    +0.098 C 
BRANCH   5   6
ATOM      6  S   UNL     1     -26.300  11.334   5.353  1.00  0.00    -0.046 SA
ATOM      7  C   UNL     1     -27.327  12.665   5.188  1.00  0.00    +0.133 C 
ATOM      8  N   UNL     1     -28.064  13.552   5.071  1.00  0.00    -0.185 NA
ENDBRANCH   5   6
ENDBRANCH   1   5
TORSDOF 3
ENDMDL
MODEL 4
REMARK VINA RESULT:    -3.738     14.928     15.648
REMARK INTER + INTRA:          -4.512
REMARK INTER:                  -4.736
REMARK INTRA:                   0.225
REMARK UNBOUND:                -0.119
REMARK SMILES N#CSCCSC#N
REMARK SMILES IDX 4 1 3 2 1 3 2 4 5 5 6 6 7 7 8 8
REMARK H PARENT
ROOT
ATOM      1  C   UNL     1     -33.609  -1.316  -0.633  1.00  0.00    +0.098 C 
ENDROOT
BRANCH   1   2
ATOM      2  S   UNL     1     -34.538  -1.192  -2.196  1.00  0.00    -0.046 SA
ATOM      3  N   UNL     1     -33.245  -3.319  -3.578  1.00  0.00    -0.185 NA
ATOM      4  C   UNL     1     -33.779  -2.445  -3.037  1.00  0.00    +0.133 C 
ENDBRANCH   1   2
BRANCH   1   5
ATOM      5  C   UNL     1     -34.166  -2.423   0.264  1.00  0.00    +0.098 C 
BRANCH   5   6
ATOM      6  S   UNL     1     -33.876  -2.064   2.027  1.00  0.00    -0.046 SA
ATOM      7  C   UNL     1     -32.960  -0.656   1.848  1.00  0.00    +0.133 C 
ATOM      8  N   UNL     1     -32.325   0.299   1.686  1.00  0.00    -0.185 NA
ENDBRANCH   5   6
ENDBRANCH   1   5
TORSDOF 3
ENDMDL
MODEL 5
REMARK VINA RESULT:    -3.709      3.280      4.874
REMARK INTER + INTRA:          -4.478
REMARK INTER:                  -4.388
REMARK INTRA:                  -0.090
REMARK UNBOUND:                -0.119
REMARK SMILES N#CSCCSC#N
REMARK SMILES IDX 4 1 3 2 1 3 2 4 5 5 6 6 7 7 8 8
REMARK H PARENT
ROOT
ATOM      1  C   UNL     1     -27.977   9.563   7.549  1.00  0.00    +0.098 C 
ENDROOT
BRANCH   1   2
ATOM      2  S   UNL     1     -26.992   8.249   6.760  1.00  0.00    -0.046 SA
ATOM      3  N   UNL     1     -26.548   9.550   4.266  1.00  0.00    -0.185 NA
ATOM      4  C   UNL     1     -26.723   8.999   5.270  1.00  0.00    +0.133 C 
ENDBRANCH   1   2
BRANCH   1   5
ATOM      5  C   UNL     1     -29.210   9.917   6.715  1.00  0.00    +0.098 C 
BRANCH   5   6
ATOM      6  S   UNL     1     -30.544   8.697   6.944  1.00  0.00    -0.046 SA
ATOM      7  C   UNL     1     -31.667   9.697   7.716  1.00  0.00    +0.133 C 
ATOM      8  N   UNL     1     -32.406  10.409   8.254  1.00  0.00    -0.185 NA
ENDBRANCH   5   6
ENDBRANCH   1   5
TORSDOF 3
ENDMDL
MODEL 6
REMARK VINA RESULT:    -3.670      1.735      4.002
REMARK INTER + INTRA:          -4.432
REMARK INTER:                  -4.219
REMARK INTRA:                  -0.213
REMARK UNBOUND:                -0.119
REMARK SMILES N#CSCCSC#N
REMARK SMILES IDX 4 1 3 2 1 3 2 4 5 5 6 6 7 7 8 8
REMARK H PARENT
ROOT
ATOM      1  C   UNL     1     -27.900   9.934   7.330  1.00  0.00    +0.098 C 
ENDROOT
BRANCH   1   2
ATOM      2  S   UNL     1     -27.370   8.229   6.968  1.00  0.00    -0.046 SA
ATOM      3  N   UNL     1     -24.599   8.764   6.585  1.00  0.00    -0.185 NA
ATOM      4  C   UNL     1     -25.724   8.525   6.729  1.00  0.00    +0.133 C 
ENDBRANCH   1   2
BRANCH   1   5
ATOM      5  C   UNL     1     -28.934  10.427   6.316  1.00  0.00    +0.098 C 
BRANCH   5   6
ATOM      6  S   UNL     1     -28.520  12.088   5.693  1.00  0.00    -0.046 SA
ATOM      7  C   UNL     1     -26.979  11.751   5.087  1.00  0.00    +0.133 C 
ATOM      8  N   UNL     1     -25.922  11.486   4.696  1.00  0.00    -0.185 NA
ENDBRANCH   5   6
ENDBRANCH   1   5
TORSDOF 3
ENDMDL
MODEL 7
REMARK VINA RESULT:    -3.600      2.578      2.717
REMARK INTER + INTRA:          -4.350
REMARK INTER:                  -4.312
REMARK INTRA:                  -0.038
REMARK UNBOUND:                -0.119
REMARK SMILES N#CSCCSC#N
REMARK SMILES IDX 4 1 3 2 1 3 2 4 5 5 6 6 7 7 8 8
REMARK H PARENT
ROOT
ATOM      1  C   UNL     1     -29.126   9.742   6.776  1.00  0.00    +0.098 C 
ENDROOT
BRANCH   1   2
ATOM      2  S   UNL     1     -30.045  11.315   6.718  1.00  0.00    -0.046 SA
ATOM      3  N   UNL     1     -32.247  10.530   8.344  1.00  0.00    -0.185 NA
ATOM      4  C   UNL     1     -31.365  10.868   7.674  1.00  0.00    +0.133 C 
ENDBRANCH   1   2
BRANCH   1   5
ATOM      5  C   UNL     1     -27.618   9.978   6.884  1.00  0.00    +0.098 C 
BRANCH   5   6
ATOM      6  S   UNL     1     -26.696   8.971   5.678  1.00  0.00    -0.046 SA
ATOM      7  C   UNL     1     -25.539   8.323   6.725  1.00  0.00    +0.133 C 
ATOM      8  N   UNL     1     -24.755   7.909   7.470  1.00  0.00    -0.185 NA
ENDBRANCH   5   6
ENDBRANCH   1   5
TORSDOF 3
ENDMDL
MODEL 8
REMARK VINA RESULT:    -3.574      9.615     10.298
REMARK INTER + INTRA:          -4.320
REMARK INTER:                  -4.100
REMARK INTRA:                  -0.219
REMARK UNBOUND:                -0.119
REMARK SMILES N#CSCCSC#N
REMARK SMILES IDX 4 1 3 2 1 3 2 4 5 5 6 6 7 7 8 8
REMARK H PARENT
ROOT
ATOM      1  C   UNL     1     -26.726   2.088  12.313  1.00  0.00    +0.098 C 
ENDROOT
BRANCH   1   2
ATOM      2  S   UNL     1     -26.002   3.717  11.931  1.00  0.00    -0.046 SA
ATOM      3  N   UNL     1     -23.532   2.794  10.857  1.00  0.00    -0.185 NA
ATOM      4  C   UNL     1     -24.526   3.191  11.298  1.00  0.00    +0.133 C 
ENDBRANCH   1   2
BRANCH   1   5
ATOM      5  C   UNL     1     -28.068   1.892  11.606  1.00  0.00    +0.098 C 
BRANCH   5   6
ATOM      6  S   UNL     1     -28.087   0.359  10.621  1.00  0.00    -0.046 SA
ATOM      7  C   UNL     1     -26.808   0.716   9.577  1.00  0.00    +0.133 C 
ATOM      8  N   UNL     1     -25.935   1.002   8.872  1.00  0.00    -0.185 NA
ENDBRANCH   5   6
ENDBRANCH   1   5
TORSDOF 3
ENDMDL
MODEL 9
REMARK VINA RESULT:    -3.442     10.753     11.490
REMARK INTER + INTRA:          -4.164
REMARK INTER:                  -4.005
REMARK INTRA:                  -0.159
REMARK UNBOUND:                -0.119
REMARK SMILES N#CSCCSC#N
REMARK SMILES IDX 4 1 3 2 1 3 2 4 5 5 6 6 7 7 8 8
REMARK H PARENT
ROOT
ATOM      1  C   UNL     1     -35.903   5.092  11.150  1.00  0.00    +0.098 C 
ENDROOT
BRANCH   1   2
ATOM      2  S   UNL     1     -37.466   4.225  10.794  1.00  0.00    -0.046 SA
ATOM      3  N   UNL     1     -39.010   6.505  10.069  1.00  0.00    -0.185 NA
ATOM      4  C   UNL     1     -38.403   5.565  10.368  1.00  0.00    +0.133 C 
ENDBRANCH   1   2
BRANCH   1   5
ATOM      5  C   UNL     1     -34.725   4.445  10.420  1.00  0.00    +0.098 C 
BRANCH   5   6
ATOM      6  S   UNL     1     -35.142   4.056   8.690  1.00  0.00    -0.046 SA
ATOM      7  C   UNL     1     -35.194   5.632   8.085  1.00  0.00    +0.133 C 
ATOM      8  N   UNL     1     -35.234   6.727   7.709  1.00  0.00    -0.185 NA
ENDBRANCH   5   6
ENDBRANCH   1   5
TORSDOF 3
ENDMDL
