MODEL 1
REMARK VINA RESULT:    -6.627      0.000      0.000
REMARK INTER + INTRA:          -7.466
REMARK INTER:                  -7.209
REMARK INTRA:                  -0.257
REMARK UNBOUND:                -0.257
REMARK SMILES Cc1cccc([N+](=O)[O-])c1N
REMARK SMILES IDX 1 1 2 2 3 3 4 4 5 5 6 6 10 7 11 8 7 11 8 12 9 13
REMARK H PARENT 11 9 11 10
ROOT
ATOM      1  C   UNL     1     -30.650  11.121   7.206  1.00  0.00    +0.047 C 
ATOM      2  C   UNL     1     -29.350  11.381   6.488  1.00  0.00    -0.021 A 
ATOM      3  C   UNL     1     -29.184  12.614   5.829  1.00  0.00    +0.006 A 
ATOM      4  C   UNL     1     -28.025  12.899   5.112  1.00  0.00    +0.008 A 
ATOM      5  C   UNL     1     -27.015  11.948   5.032  1.00  0.00    +0.088 A 
ATOM      6  C   UNL     1     -27.167  10.717   5.691  1.00  0.00    +0.292 A 
ATOM      7  C   UNL     1     -28.309  10.422   6.471  1.00  0.00    +0.113 A 
ENDROOT
BRANCH   7   8
ATOM      8  N   UNL     1     -28.542   9.145   7.023  1.00  0.00    -0.393 N 
ATOM      9  H   UNL     1     -29.389   8.692   6.699  1.00  0.00    +0.156 HD
ATOM     10  H   UNL     1     -28.489   9.131   8.046  1.00  0.00    +0.156 HD
ENDBRANCH   7   8
BRANCH   6  11
ATOM     11  N   UNL     1     -26.073   9.751   5.568  1.00  0.00    +0.064 N 
ATOM     12  O   UNL     1     -26.240   8.790   4.802  1.00  0.00    -0.258 OA
ATOM     13  O   UNL     1     -25.035   9.961   6.216  1.00  0.00    -0.258 OA
ENDBRANCH   6  11
TORSDOF 2
ENDMDL
MODEL 2
REMARK VINA RESULT:    -6.440      1.185      2.599
REMARK INTER + INTRA:          -7.262
REMARK INTER:                  -7.001
REMARK INTRA:                  -0.261
REMARK UNBOUND:                -0.257
REMARK SMILES Cc1cccc([N+](=O)[O-])c1N
REMARK SMILES IDX 1 1 2 2 3 3 4 4 5 5 6 6 10 7 11 8 7 11 8 12 9 13
REMARK H PARENT 11 9 11 10
ROOT
ATOM      1  C   UNL     1     -28.047  13.510   5.077  1.00  0.00    +0.047 C 
ATOM      2  C   UNL     1     -28.236  12.135   5.665  1.00  0.00    -0.021 A 
ATOM      3  C   UNL     1     -29.444  11.852   6.332  1.00  0.00    +0.006 A 
ATOM      4  C   UNL     1     -29.664  10.615   6.933  1.00  0.00    +0.008 A 
ATOM      5  C   UNL     1     -28.673   9.644   6.890  1.00  0.00    +0.088 A 
ATOM      6  C   UNL     1     -27.466   9.912   6.222  1.00  0.00    +0.292 A 
ATOM      7  C   UNL     1     -27.237  11.138   5.556  1.00  0.00    +0.113 A 
ENDROOT
BRANCH   7   8
ATOM      8  N   UNL     1     -25.985  11.478   5.002  1.00  0.00    -0.393 N 
ATOM      9  H   UNL     1     -25.686  12.430   5.185  1.00  0.00    +0.156 HD
ATOM     10  H   UNL     1     -25.911  11.258   4.004  1.00  0.00    +0.156 HD
ENDBRANCH   7   8
BRANCH   6  11
ATOM     11  N   UNL     1     -26.455   8.853   6.213  1.00  0.00    +0.064 N 
ATOM     12  O   UNL     1     -26.233   8.262   7.280  1.00  0.00    -0.258 OA
ATOM     13  O   UNL     1     -25.895   8.593   5.135  1.00  0.00    -0.258 OA
ENDBRANCH   6  11
TORSDOF 2
ENDMDL
MODEL 3
REMARK VINA RESULT:    -6.346      1.745      2.594
REMARK INTER + INTRA:          -7.160
REMARK INTER:                  -6.951
REMARK INTRA:                  -0.209
REMARK UNBOUND:                -0.257
REMARK SMILES Cc1cccc([N+](=O)[O-])c1N
REMARK SMILES IDX 1 1 2 2 3 3 4 4 5 5 6 6 10 7 11 8 7 11 8 12 9 13
REMARK H PARENT 11 9 11 10
ROOT
ATOM      1  C   UNL     1     -30.904  11.773   6.618  1.00  0.00    +0.047 C 
ATOM      2  C   UNL     1     -29.684  10.889   6.555  1.00  0.00    -0.021 A 
ATOM      3  C   UNL     1     -29.746   9.618   7.158  1.00  0.00    +0.006 A 
ATOM      4  C   UNL     1     -28.641   8.771   7.172  1.00  0.00    +0.008 A 
ATOM      5  C   UNL     1     -27.449   9.187   6.593  1.00  0.00    +0.088 A 
ATOM      6  C   UNL     1     -27.377  10.450   5.982  1.00  0.00    +0.292 A 
ATOM      7  C   UNL     1     -28.499  11.308   5.906  1.00  0.00    +0.113 A 
ENDROOT
BRANCH   7   8
ATOM      8  N   UNL     1     -28.410  12.630   5.423  1.00  0.00    -0.393 N 
ATOM      9  H   UNL     1     -29.263  13.172   5.512  1.00  0.00    +0.156 HD
ATOM     10  H   UNL     1     -28.039  12.689   4.470  1.00  0.00    +0.156 HD
ENDBRANCH   7   8
BRANCH   6  11
ATOM     11  N   UNL     1     -26.094  10.838   5.393  1.00  0.00    +0.064 N 
ATOM     12  O   UNL     1     -25.061  10.466   5.970  1.00  0.00    -0.258 OA
ATOM     13  O   UNL     1     -26.113  11.495   4.339  1.00  0.00    -0.258 OA
ENDBRANCH   6  11
TORSDOF 2
ENDMDL
MODEL 4
REMARK VINA RESULT:    -6.024      1.687      2.464
REMARK INTER + INTRA:          -6.809
REMARK INTER:                  -6.535
REMARK INTRA:                  -0.274
REMARK UNBOUND:                -0.257
REMARK SMILES Cc1cccc([N+](=O)[O-])c1N
REMARK SMILES IDX 1 1 2 2 3 3 4 4 5 5 6 6 10 7 11 8 7 11 8 12 9 13
REMARK H PARENT 11 9 11 10
ROOT
ATOM      1  C   UNL     1     -28.711   7.940   7.772  1.00  0.00    +0.047 C 
ATOM      2  C   UNL     1     -28.594   9.279   7.091  1.00  0.00    -0.021 A 
ATOM      3  C   UNL     1     -29.734  10.105   7.038  1.00  0.00    +0.006 A 
ATOM      4  C   UNL     1     -29.704  11.335   6.386  1.00  0.00    +0.008 A 
ATOM      5  C   UNL     1     -28.535  11.756   5.765  1.00  0.00    +0.088 A 
ATOM      6  C   UNL     1     -27.390  10.944   5.818  1.00  0.00    +0.292 A 
ATOM      7  C   UNL     1     -27.376   9.716   6.518  1.00  0.00    +0.113 A 
ENDROOT
BRANCH   7   8
ATOM      8  N   UNL     1     -26.284   8.825   6.466  1.00  0.00    -0.393 N 
ATOM      9  H   UNL     1     -26.293   8.101   7.176  1.00  0.00    +0.156 HD
ATOM     10  H   UNL     1     -25.376   9.299   6.441  1.00  0.00    +0.156 HD
ENDBRANCH   7   8
BRANCH   6  11
ATOM     11  N   UNL     1     -26.188  11.435   5.141  1.00  0.00    +0.064 N 
ATOM     12  O   UNL     1     -25.133  11.461   5.792  1.00  0.00    -0.258 OA
ATOM     13  O   UNL     1     -26.289  11.776   3.951  1.00  0.00    -0.258 OA
ENDBRANCH   6  11
TORSDOF 2
ENDMDL
MODEL 5
REMARK VINA RESULT:    -5.858      3.604      4.504
REMARK INTER + INTRA:          -6.629
REMARK INTER:                  -6.359
REMARK INTRA:                  -0.270
REMARK UNBOUND:                -0.257
REMARK SMILES Cc1cccc([N+](=O)[O-])c1N
REMARK SMILES IDX 1 1 2 2 3 3 4 4 5 5 6 6 10 7 11 8 7 11 8 12 9 13
REMARK H PARENT 11 9 11 10
ROOT
ATOM      1  C   UNL     1     -27.200   8.267   6.726  1.00  0.00    +0.047 C 
ATOM      2  C   UNL     1     -28.311   9.285   6.686  1.00  0.00    -0.021 A 
ATOM      3  C   UNL     1     -28.020  10.575   6.202  1.00  0.00    +0.006 A 
ATOM      4  C   UNL     1     -28.991  11.573   6.179  1.00  0.00    +0.008 A 
ATOM      5  C   UNL     1     -30.268  11.301   6.651  1.00  0.00    +0.088 A 
ATOM      6  C   UNL     1     -30.572  10.015   7.130  1.00  0.00    +0.292 A 
ATOM      7  C   UNL     1     -29.622   8.968   7.115  1.00  0.00    +0.113 A 
ENDROOT
BRANCH   7   8
ATOM      8  N   UNL     1     -29.864   7.716   7.716  1.00  0.00    -0.393 N 
ATOM      9  H   UNL     1     -29.588   7.654   8.691  1.00  0.00    +0.156 HD
ATOM     10  H   UNL     1     -29.487   6.929   7.180  1.00  0.00    +0.156 HD
ENDBRANCH   7   8
BRANCH   6  11
ATOM     11  N   UNL     1     -31.932   9.787   7.620  1.00  0.00    +0.064 N 
ATOM     12  O   UNL     1     -32.402  10.615   8.416  1.00  0.00    -0.258 OA
ATOM     13  O   UNL     1     -32.545   8.794   7.196  1.00  0.00    -0.258 OA
ENDBRANCH   6  11
TORSDOF 2
ENDMDL
MODEL 6
REMARK VINA RESULT:    -5.537      6.577      7.900
REMARK INTER + INTRA:          -6.279
REMARK INTER:                  -6.002
REMARK INTRA:                  -0.278
REMARK UNBOUND:                -0.257
REMARK SMILES Cc1cccc([N+](=O)[O-])c1N
REMARK SMILES IDX 1 1 2 2 3 3 4 4 5 5 6 6 10 7 11 8 7 11 8 12 9 13
REMARK H PARENT 11 9 11 10
ROOT
ATOM      1  C   UNL     1     -30.675   8.035   7.319  1.00  0.00    +0.047 C 
ATOM      2  C   UNL     1     -31.851   7.317   6.707  1.00  0.00    -0.021 A 
ATOM      3  C   UNL     1     -32.156   7.563   5.355  1.00  0.00    +0.006 A 
ATOM      4  C   UNL     1     -33.254   6.964   4.742  1.00  0.00    +0.008 A 
ATOM      5  C   UNL     1     -34.074   6.117   5.477  1.00  0.00    +0.088 A 
ATOM      6  C   UNL     1     -33.775   5.859   6.826  1.00  0.00    +0.292 A 
ATOM      7  C   UNL     1     -32.637   6.411   7.457  1.00  0.00    +0.113 A 
ENDROOT
BRANCH   7   8
ATOM      8  N   UNL     1     -32.398   6.276   8.841  1.00  0.00    -0.393 N 
ATOM      9  H   UNL     1     -32.464   5.326   9.192  1.00  0.00    +0.156 HD
ATOM     10  H   UNL     1     -32.957   6.916   9.413  1.00  0.00    +0.156 HD
ENDBRANCH   7   8
BRANCH   6  11
ATOM     11  N   UNL     1     -34.677   4.964   7.553  1.00  0.00    +0.064 N 
ATOM     12  O   UNL     1     -35.266   5.422   8.543  1.00  0.00    -0.258 OA
ATOM     13  O   UNL     1     -34.819   3.807   7.123  1.00  0.00    -0.258 OA
ENDBRANCH   6  11
TORSDOF 2
ENDMDL
MODEL 7
REMARK VINA RESULT:    -5.459      9.146     10.822
REMARK INTER + INTRA:          -6.195
REMARK INTER:                  -5.989
REMARK INTRA:                  -0.206
REMARK UNBOUND:                -0.257
REMARK SMILES Cc1cccc([N+](=O)[O-])c1N
REMARK SMILES IDX 1 1 2 2 3 3 4 4 5 5 6 6 10 7 11 8 7 11 8 12 9 13
REMARK H PARENT 11 9 11 10
ROOT
ATOM      1  C   UNL     1     -33.559   5.446   6.188  1.00  0.00    +0.047 C 
ATOM      2  C   UNL     1     -34.627   4.975   7.141  1.00  0.00    -0.021 A 
ATOM      3  C   UNL     1     -35.006   3.619   7.105  1.00  0.00    +0.006 A 
ATOM      4  C   UNL     1     -36.016   3.130   7.929  1.00  0.00    +0.008 A 
ATOM      5  C   UNL     1     -36.674   3.993   8.796  1.00  0.00    +0.088 A 
ATOM      6  C   UNL     1     -36.300   5.346   8.846  1.00  0.00    +0.292 A 
ATOM      7  C   UNL     1     -35.242   5.858   8.060  1.00  0.00    +0.113 A 
ENDROOT
BRANCH   7   8
ATOM      8  N   UNL     1     -34.945   7.235   7.993  1.00  0.00    -0.393 N 
ATOM      9  H   UNL     1     -33.961   7.462   8.089  1.00  0.00    +0.156 HD
ATOM     10  H   UNL     1     -35.513   7.804   8.629  1.00  0.00    +0.156 HD
ENDBRANCH   7   8
BRANCH   6  11
ATOM     11  N   UNL     1     -37.032   6.210   9.774  1.00  0.00    +0.064 N 
ATOM     12  O   UNL     1     -38.156   6.604   9.427  1.00  0.00    -0.258 OA
ATOM     13  O   UNL     1     -36.497   6.480  10.862  1.00  0.00    -0.258 OA
ENDBRANCH   6  11
TORSDOF 2
ENDMDL
MODEL 8
REMARK VINA RESULT:    -5.446      3.634      4.759
REMARK INTER + INTRA:          -6.181
REMARK INTER:                  -5.906
REMARK INTRA:                  -0.276
REMARK UNBOUND:                -0.257
REMARK SMILES Cc1cccc([N+](=O)[O-])c1N
REMARK SMILES IDX 1 1 2 2 3 3 4 4 5 5 6 6 10 7 11 8 7 11 8 12 9 13
REMARK H PARENT 11 9 11 10
ROOT
ATOM      1  C   UNL     1     -25.772   5.353   8.432  1.00  0.00    +0.047 C 
ATOM      2  C   UNL     1     -26.031   6.626   7.669  1.00  0.00    -0.021 A 
ATOM      3  C   UNL     1     -24.960   7.220   6.974  1.00  0.00    +0.006 A 
ATOM      4  C   UNL     1     -25.123   8.419   6.285  1.00  0.00    +0.008 A 
ATOM      5  C   UNL     1     -26.360   9.052   6.289  1.00  0.00    +0.088 A 
ATOM      6  C   UNL     1     -27.437   8.465   6.973  1.00  0.00    +0.292 A 
ATOM      7  C   UNL     1     -27.314   7.222   7.635  1.00  0.00    +0.113 A 
ENDROOT
BRANCH   7   8
ATOM      8  N   UNL     1     -28.341   6.687   8.441  1.00  0.00    -0.393 N 
ATOM      9  H   UNL     1     -28.726   5.809   8.109  1.00  0.00    +0.156 HD
ATOM     10  H   UNL     1     -29.088   7.358   8.645  1.00  0.00    +0.156 HD
ENDBRANCH   7   8
BRANCH   6  11
ATOM     11  N   UNL     1     -28.716   9.179   6.949  1.00  0.00    +0.064 N 
ATOM     12  O   UNL     1     -29.719   8.547   6.586  1.00  0.00    -0.258 OA
ATOM     13  O   UNL     1     -28.726  10.366   7.314  1.00  0.00    -0.258 OA
ENDBRANCH   6  11
TORSDOF 2
ENDMDL
MODEL 9
REMARK VINA RESULT:    -5.196     10.561     11.544
REMARK INTER + INTRA:          -5.909
REMARK INTER:                  -5.630
REMARK INTRA:                  -0.278
REMARK UNBOUND:                -0.257
REMARK SMILES Cc1cccc([N+](=O)[O-])c1N
REMARK SMILES IDX 1 1 2 2 3 3 4 4 5 5 6 6 10 7 11 8 7 11 8 12 9 13
REMARK H PARENT 11 9 11 10
ROOT
ATOM      1  C   UNL     1     -37.025   6.661  11.007  1.00  0.00    +0.047 C 
ATOM      2  C   UNL     1     -36.891   5.244  10.512  1.00  0.00    -0.021 A 
ATOM      3  C   UNL     1     -37.684   4.247  11.113  1.00  0.00    +0.006 A 
ATOM      4  C   UNL     1     -37.577   2.912  10.730  1.00  0.00    +0.008 A 
ATOM      5  C   UNL     1     -36.666   2.549   9.747  1.00  0.00    +0.088 A 
ATOM      6  C   UNL     1     -35.874   3.536   9.135  1.00  0.00    +0.292 A 
ATOM      7  C   UNL     1     -36.000   4.906   9.466  1.00  0.00    +0.113 A 
ENDROOT
BRANCH   7   8
ATOM      8  N   UNL     1     -35.122   5.890   8.966  1.00  0.00    -0.393 N 
ATOM      9  H   UNL     1     -34.935   6.654   9.605  1.00  0.00    +0.156 HD
ATOM     10  H   UNL     1     -35.394   6.245   8.043  1.00  0.00    +0.156 HD
ENDBRANCH   7   8
BRANCH   6  11
ATOM     11  N   UNL     1     -34.927   3.096   8.110  1.00  0.00    +0.064 N 
ATOM     12  O   UNL     1     -34.040   2.300   8.452  1.00  0.00    -0.258 OA
ATOM     13  O   UNL     1     -35.080   3.525   6.954  1.00  0.00    -0.258 OA
ENDBRANCH   6  11
TORSDOF 2
ENDMDL
