MODEL 1
REMARK VINA RESULT:    -6.216      0.000      0.000
REMARK INTER + INTRA:         -10.235
REMARK INTER:                  -9.486
REMARK INTRA:                  -0.749
REMARK UNBOUND:                -0.749
REMARK SMILES CC(C)(CCN(CC(=O)O)CC(=O)O)[N+](=O)[O-]
REMARK SMILES IDX 5 1 4 2 2 3 1 4 3 5 15 6 16 7 17 8 6 9 7 10 8 11 9 12 10 13
REMARK SMILES IDX 11 15 12 16 13 17 14 18
REMARK H PARENT 10 14 14 19
ROOT
ATOM      1  C   UNL     1     -28.188   8.349   7.757  1.00  0.00    +0.093 C 
ENDROOT
BRANCH   1   2
ATOM      2  C   UNL     1     -28.171   9.887   7.712  1.00  0.00    +0.101 C 
BRANCH   2   3
ATOM      3  C   UNL     1     -29.371  10.539   6.979  1.00  0.00    +0.218 C 
ATOM      4  C   UNL     1     -30.316   9.487   6.379  1.00  0.00    +0.097 C 
ATOM      5  C   UNL     1     -30.153  11.440   7.947  1.00  0.00    +0.097 C 
BRANCH   3   6
ATOM      6  N   UNL     1     -28.850  11.459   5.868  1.00  0.00    +0.025 N 
ATOM      7  O   UNL     1     -27.855  11.079   5.236  1.00  0.00    -0.264 OA
ATOM      8  O   UNL     1     -29.433  12.535   5.684  1.00  0.00    -0.264 OA
ENDBRANCH   3   6
ENDBRANCH   2   3
ENDBRANCH   1   2
BRANCH   1   9
ATOM      9  N   UNL     1     -26.860   7.743   7.543  1.00  0.00    -0.282 NA
BRANCH   9  10
ATOM     10  C   UNL     1     -26.291   8.010   6.199  1.00  0.00    +0.208 C 
BRANCH  10  11
ATOM     11  C   UNL     1     -25.060   8.899   6.278  1.00  0.00    +0.317 C 
ATOM     12  O   UNL     1     -25.030  10.106   6.093  1.00  0.00    -0.251 OA
BRANCH  11  13
ATOM     13  O   UNL     1     -23.919   8.228   6.546  1.00  0.00    -0.480 OA
ATOM     14  H   UNL     1     -24.018   7.954   7.480  1.00  0.00    +0.296 HD
ENDBRANCH  11  13
ENDBRANCH  10  11
ENDBRANCH   9  10
BRANCH   9  15
ATOM     15  C   UNL     1     -26.880   6.288   7.831  1.00  0.00    +0.208 C 
BRANCH  15  16
ATOM     16  C   UNL     1     -25.556   5.736   8.335  1.00  0.00    +0.317 C 
ATOM     17  O   UNL     1     -24.589   6.393   8.685  1.00  0.00    -0.251 OA
BRANCH  16  18
ATOM     18  O   UNL     1     -25.534   4.390   8.419  1.00  0.00    -0.480 OA
ATOM     19  H   UNL     1     -25.136   4.108   7.567  1.00  0.00    +0.296 HD
ENDBRANCH  16  18
ENDBRANCH  15  16
ENDBRANCH   9  15
ENDBRANCH   1   9
TORSDOF 10
ENDMDL
MODEL 2
REMARK VINA RESULT:    -6.104      1.997      6.085
REMARK INTER + INTRA:         -10.064
REMARK INTER:                  -9.765
REMARK INTRA:                  -0.299
REMARK UNBOUND:                -0.749
REMARK SMILES CC(C)(CCN(CC(=O)O)CC(=O)O)[N+](=O)[O-]
REMARK SMILES IDX 5 1 4 2 2 3 1 4 3 5 15 6 16 7 17 8 6 9 7 10 8 11 9 12 10 13
REMARK SMILES IDX 11 15 12 16 13 17 14 18
REMARK H PARENT 10 14 14 19
ROOT
ATOM      1  C   UNL     1     -28.903  10.152   6.907  1.00  0.00    +0.093 C 
ENDROOT
BRANCH   1   2
ATOM      2  C   UNL     1     -27.543   9.734   7.492  1.00  0.00    +0.101 C 
BRANCH   2   3
ATOM      3  C   UNL     1     -26.692   8.806   6.587  1.00  0.00    +0.218 C 
ATOM      4  C   UNL     1     -26.661   7.364   7.116  1.00  0.00    +0.097 C 
ATOM      5  C   UNL     1     -27.245   8.816   5.154  1.00  0.00    +0.097 C 
BRANCH   3   6
ATOM      6  N   UNL     1     -25.263   9.355   6.496  1.00  0.00    +0.025 N 
ATOM      7  O   UNL     1     -25.127  10.522   6.105  1.00  0.00    -0.264 OA
ATOM      8  O   UNL     1     -24.330   8.598   6.791  1.00  0.00    -0.264 OA
ENDBRANCH   3   6
ENDBRANCH   2   3
ENDBRANCH   1   2
BRANCH   1   9
ATOM      9  N   UNL     1     -29.128  11.610   6.935  1.00  0.00    -0.282 NA
BRANCH   9  10
ATOM     10  C   UNL     1     -30.304  12.019   7.741  1.00  0.00    +0.208 C 
BRANCH  10  11
ATOM     11  C   UNL     1     -31.472  11.061   7.554  1.00  0.00    +0.317 C 
ATOM     12  O   UNL     1     -32.049  10.448   8.439  1.00  0.00    -0.251 OA
BRANCH  11  13
ATOM     13  O   UNL     1     -31.833  10.888   6.264  1.00  0.00    -0.480 OA
ATOM     14  H   UNL     1     -32.233   9.994   6.248  1.00  0.00    +0.296 HD
ENDBRANCH  11  13
ENDBRANCH  10  11
ENDBRANCH   9  10
BRANCH   9  15
ATOM     15  C   UNL     1     -29.206  12.168   5.563  1.00  0.00    +0.208 C 
BRANCH  15  16
ATOM     16  C   UNL     1     -28.005  13.013   5.167  1.00  0.00    +0.317 C 
ATOM     17  O   UNL     1     -28.006  14.218   4.971  1.00  0.00    -0.251 OA
BRANCH  16  18
ATOM     18  O   UNL     1     -26.858  12.309   5.081  1.00  0.00    -0.480 OA
ATOM     19  H   UNL     1     -27.146  11.427   4.765  1.00  0.00    +0.296 HD
ENDBRANCH  16  18
ENDBRANCH  15  16
ENDBRANCH   9  15
ENDBRANCH   1   9
TORSDOF 10
ENDMDL
MODEL 3
REMARK VINA RESULT:    -5.937      8.386      9.420
REMARK INTER + INTRA:          -9.810
REMARK INTER:                  -8.735
REMARK INTRA:                  -1.075
REMARK UNBOUND:                -0.749
REMARK SMILES CC(C)(CCN(CC(=O)O)CC(=O)O)[N+](=O)[O-]
REMARK SMILES IDX 5 1 4 2 2 3 1 4 3 5 15 6 16 7 17 8 6 9 7 10 8 11 9 12 10 13
REMARK SMILES IDX 11 15 12 16 13 17 14 18
REMARK H PARENT 10 14 14 19
ROOT
ATOM      1  C   UNL     1     -34.641   4.549  10.251  1.00  0.00    +0.093 C 
ENDROOT
BRANCH   1   2
ATOM      2  C   UNL     1     -36.029   4.015   9.858  1.00  0.00    +0.101 C 
BRANCH   2   3
ATOM      3  C   UNL     1     -37.231   4.799  10.445  1.00  0.00    +0.218 C 
ATOM      4  C   UNL     1     -38.178   3.886  11.239  1.00  0.00    +0.097 C 
ATOM      5  C   UNL     1     -36.727   5.931  11.354  1.00  0.00    +0.097 C 
BRANCH   3   6
ATOM      6  N   UNL     1     -38.001   5.479   9.307  1.00  0.00    +0.025 N 
ATOM      7  O   UNL     1     -37.568   6.565   8.897  1.00  0.00    -0.264 OA
ATOM      8  O   UNL     1     -39.020   4.921   8.880  1.00  0.00    -0.264 OA
ENDBRANCH   3   6
ENDBRANCH   2   3
ENDBRANCH   1   2
BRANCH   1   9
ATOM      9  N   UNL     1     -33.904   5.147   9.122  1.00  0.00    -0.282 NA
BRANCH   9  10
ATOM     10  C   UNL     1     -34.546   4.926   7.804  1.00  0.00    +0.208 C 
BRANCH  10  11
ATOM     11  C   UNL     1     -34.621   6.212   6.995  1.00  0.00    +0.317 C 
ATOM     12  O   UNL     1     -34.449   6.315   5.789  1.00  0.00    -0.251 OA
BRANCH  11  13
ATOM     13  O   UNL     1     -34.867   7.311   7.739  1.00  0.00    -0.480 OA
ATOM     14  H   UNL     1     -34.318   8.007   7.324  1.00  0.00    +0.296 HD
ENDBRANCH  11  13
ENDBRANCH  10  11
ENDBRANCH   9  10
BRANCH   9  15
ATOM     15  C   UNL     1     -32.490   4.697   9.106  1.00  0.00    +0.208 C 
BRANCH  15  16
ATOM     16  C   UNL     1     -31.479   5.826   8.982  1.00  0.00    +0.317 C 
ATOM     17  O   UNL     1     -30.264   5.706   8.971  1.00  0.00    -0.251 OA
BRANCH  16  18
ATOM     18  O   UNL     1     -32.046   7.040   8.832  1.00  0.00    -0.480 OA
ATOM     19  H   UNL     1     -32.981   6.897   9.094  1.00  0.00    +0.296 HD
ENDBRANCH  16  18
ENDBRANCH  15  16
ENDBRANCH   9  15
ENDBRANCH   1   9
TORSDOF 10
ENDMDL
MODEL 4
REMARK VINA RESULT:    -5.804      6.889     10.116
REMARK INTER + INTRA:          -9.606
REMARK INTER:                  -9.033
REMARK INTRA:                  -0.573
REMARK UNBOUND:                -0.749
REMARK SMILES CC(C)(CCN(CC(=O)O)CC(=O)O)[N+](=O)[O-]
REMARK SMILES IDX 5 1 4 2 2 3 1 4 3 5 15 6 16 7 17 8 6 9 7 10 8 11 9 12 10 13
REMARK SMILES IDX 11 15 12 16 13 17 14 18
REMARK H PARENT 10 14 14 19
ROOT
ATOM      1  C   UNL     1     -26.935   1.337  12.785  1.00  0.00    +0.093 C 
ENDROOT
BRANCH   1   2
ATOM      2  C   UNL     1     -28.351   1.694  13.269  1.00  0.00    +0.101 C 
BRANCH   2   3
ATOM      3  C   UNL     1     -29.148   0.524  13.902  1.00  0.00    +0.218 C 
ATOM      4  C   UNL     1     -30.657   0.655  13.647  1.00  0.00    +0.097 C 
ATOM      5  C   UNL     1     -28.647  -0.817  13.343  1.00  0.00    +0.097 C 
BRANCH   3   6
ATOM      6  N   UNL     1     -28.879   0.482  15.411  1.00  0.00    +0.025 N 
ATOM      7  O   UNL     1     -29.683   1.071  16.147  1.00  0.00    -0.264 OA
ATOM      8  O   UNL     1     -27.867  -0.111  15.805  1.00  0.00    -0.264 OA
ENDBRANCH   3   6
ENDBRANCH   2   3
ENDBRANCH   1   2
BRANCH   1   9
ATOM      9  N   UNL     1     -26.523   2.085  11.582  1.00  0.00    -0.282 NA
BRANCH   9  10
ATOM     10  C   UNL     1     -25.515   1.379  10.755  1.00  0.00    +0.208 C 
BRANCH  10  11
ATOM     11  C   UNL     1     -26.121   0.846   9.466  1.00  0.00    +0.317 C 
ATOM     12  O   UNL     1     -26.223  -0.330   9.150  1.00  0.00    -0.251 OA
BRANCH  11  13
ATOM     13  O   UNL     1     -26.533   1.813   8.617  1.00  0.00    -0.480 OA
ATOM     14  H   UNL     1     -27.181   1.360   8.040  1.00  0.00    +0.296 HD
ENDBRANCH  11  13
ENDBRANCH  10  11
ENDBRANCH   9  10
BRANCH   9  15
ATOM     15  C   UNL     1     -26.061   3.451  11.930  1.00  0.00    +0.208 C 
BRANCH  15  16
ATOM     16  C   UNL     1     -25.591   4.271  10.739  1.00  0.00    +0.317 C 
ATOM     17  O   UNL     1     -24.430   4.494  10.433  1.00  0.00    -0.251 OA
BRANCH  16  18
ATOM     18  O   UNL     1     -26.600   4.729   9.971  1.00  0.00    -0.480 OA
ATOM     19  H   UNL     1     -26.393   4.380   9.078  1.00  0.00    +0.296 HD
ENDBRANCH  16  18
ENDBRANCH  15  16
ENDBRANCH   9  15
ENDBRANCH   1   9
TORSDOF 10
ENDMDL
MODEL 5
REMARK VINA RESULT:    -5.743      5.809      9.125
REMARK INTER + INTRA:          -9.514
REMARK INTER:                  -8.535
REMARK INTRA:                  -0.979
REMARK UNBOUND:                -0.749
REMARK SMILES CC(C)(CCN(CC(=O)O)CC(=O)O)[N+](=O)[O-]
REMARK SMILES IDX 5 1 4 2 2 3 1 4 3 5 15 6 16 7 17 8 6 9 7 10 8 11 9 12 10 13
REMARK SMILES IDX 11 15 12 16 13 17 14 18
REMARK H PARENT 10 14 14 19
ROOT
ATOM      1  C   UNL     1     -27.238   2.846  11.684  1.00  0.00    +0.093 C 
ENDROOT
BRANCH   1   2
ATOM      2  C   UNL     1     -28.458   2.014  11.254  1.00  0.00    +0.101 C 
BRANCH   2   3
ATOM      3  C   UNL     1     -28.722   0.743  12.102  1.00  0.00    +0.218 C 
ATOM      4  C   UNL     1     -27.849   0.706  13.366  1.00  0.00    +0.097 C 
ATOM      5  C   UNL     1     -30.205   0.673  12.499  1.00  0.00    +0.097 C 
BRANCH   3   6
ATOM      6  N   UNL     1     -28.451  -0.503  11.250  1.00  0.00    +0.025 N 
ATOM      7  O   UNL     1     -27.879  -0.335  10.164  1.00  0.00    -0.264 OA
ATOM      8  O   UNL     1     -28.840  -1.597  11.679  1.00  0.00    -0.264 OA
ENDBRANCH   3   6
ENDBRANCH   2   3
ENDBRANCH   1   2
BRANCH   1   9
ATOM      9  N   UNL     1     -26.150   2.845  10.688  1.00  0.00    -0.282 NA
BRANCH   9  10
ATOM     10  C   UNL     1     -25.111   1.817  10.938  1.00  0.00    +0.208 C 
BRANCH  10  11
ATOM     11  C   UNL     1     -24.495   1.316   9.641  1.00  0.00    +0.317 C 
ATOM     12  O   UNL     1     -23.347   1.509   9.267  1.00  0.00    -0.251 OA
BRANCH  11  13
ATOM     13  O   UNL     1     -25.355   0.632   8.857  1.00  0.00    -0.480 OA
ATOM     14  H   UNL     1     -25.659   1.294   8.204  1.00  0.00    +0.296 HD
ENDBRANCH  11  13
ENDBRANCH  10  11
ENDBRANCH   9  10
BRANCH   9  15
ATOM     15  C   UNL     1     -25.542   4.192  10.555  1.00  0.00    +0.208 C 
BRANCH  15  16
ATOM     16  C   UNL     1     -25.795   4.859   9.213  1.00  0.00    +0.317 C 
ATOM     17  O   UNL     1     -25.123   4.724   8.203  1.00  0.00    -0.251 OA
BRANCH  16  18
ATOM     18  O   UNL     1     -26.906   5.625   9.195  1.00  0.00    -0.480 OA
ATOM     19  H   UNL     1     -26.760   6.233   8.439  1.00  0.00    +0.296 HD
ENDBRANCH  16  18
ENDBRANCH  15  16
ENDBRANCH   9  15
ENDBRANCH   1   9
TORSDOF 10
ENDMDL
MODEL 6
REMARK VINA RESULT:    -5.739      7.038      9.877
REMARK INTER + INTRA:          -9.507
REMARK INTER:                  -8.904
REMARK INTRA:                  -0.603
REMARK UNBOUND:                -0.749
REMARK SMILES CC(C)(CCN(CC(=O)O)CC(=O)O)[N+](=O)[O-]
REMARK SMILES IDX 5 1 4 2 2 3 1 4 3 5 15 6 16 7 17 8 6 9 7 10 8 11 9 12 10 13
REMARK SMILES IDX 11 15 12 16 13 17 14 18
REMARK H PARENT 10 14 14 19
ROOT
ATOM      1  C   UNL     1     -26.842   1.321  12.720  1.00  0.00    +0.093 C 
ENDROOT
BRANCH   1   2
ATOM      2  C   UNL     1     -28.359   1.520  12.886  1.00  0.00    +0.101 C 
BRANCH   2   3
ATOM      3  C   UNL     1     -29.070   0.468  13.774  1.00  0.00    +0.218 C 
ATOM      4  C   UNL     1     -30.600   0.575  13.674  1.00  0.00    +0.097 C 
ATOM      5  C   UNL     1     -28.627  -0.947  13.372  1.00  0.00    +0.097 C 
BRANCH   3   6
ATOM      6  N   UNL     1     -28.633   0.652  15.232  1.00  0.00    +0.025 N 
ATOM      7  O   UNL     1     -29.130   1.597  15.859  1.00  0.00    -0.264 OA
ATOM      8  O   UNL     1     -27.793  -0.133  15.690  1.00  0.00    -0.264 OA
ENDBRANCH   3   6
ENDBRANCH   2   3
ENDBRANCH   1   2
BRANCH   1   9
ATOM      9  N   UNL     1     -26.290   1.998  11.532  1.00  0.00    -0.282 NA
BRANCH   9  10
ATOM     10  C   UNL     1     -26.236   3.475  11.654  1.00  0.00    +0.208 C 
BRANCH  10  11
ATOM     11  C   UNL     1     -25.153   4.072  10.770  1.00  0.00    +0.317 C 
ATOM     12  O   UNL     1     -25.331   4.820   9.819  1.00  0.00    -0.251 OA
BRANCH  11  13
ATOM     13  O   UNL     1     -23.904   3.673  11.092  1.00  0.00    -0.480 OA
ATOM     14  H   UNL     1     -23.358   4.474  10.961  1.00  0.00    +0.296 HD
ENDBRANCH  11  13
ENDBRANCH  10  11
ENDBRANCH   9  10
BRANCH   9  15
ATOM     15  C   UNL     1     -27.012   1.594  10.300  1.00  0.00    +0.208 C 
BRANCH  15  16
ATOM     16  C   UNL     1     -26.279   0.560   9.460  1.00  0.00    +0.317 C 
ATOM     17  O   UNL     1     -26.631  -0.593   9.270  1.00  0.00    -0.251 OA
BRANCH  16  18
ATOM     18  O   UNL     1     -25.167   1.041   8.866  1.00  0.00    -0.480 OA
ATOM     19  H   UNL     1     -24.494   0.347   9.030  1.00  0.00    +0.296 HD
ENDBRANCH  16  18
ENDBRANCH  15  16
ENDBRANCH   9  15
ENDBRANCH   1   9
TORSDOF 10
ENDMDL
MODEL 7
REMARK VINA RESULT:    -5.725      7.285      9.726
REMARK INTER + INTRA:          -9.486
REMARK INTER:                  -8.669
REMARK INTRA:                  -0.816
REMARK UNBOUND:                -0.749
REMARK SMILES CC(C)(CCN(CC(=O)O)CC(=O)O)[N+](=O)[O-]
REMARK SMILES IDX 5 1 4 2 2 3 1 4 3 5 15 6 16 7 17 8 6 9 7 10 8 11 9 12 10 13
REMARK SMILES IDX 11 15 12 16 13 17 14 18
REMARK H PARENT 10 14 14 19
ROOT
ATOM      1  C   UNL     1     -26.726   1.253  12.706  1.00  0.00    +0.093 C 
ENDROOT
BRANCH   1   2
ATOM      2  C   UNL     1     -25.659   1.161  11.602  1.00  0.00    +0.101 C 
BRANCH   2   3
ATOM      3  C   UNL     1     -25.416   2.470  10.806  1.00  0.00    +0.218 C 
ATOM      4  C   UNL     1     -26.096   3.677  11.470  1.00  0.00    +0.097 C 
ATOM      5  C   UNL     1     -23.909   2.735  10.676  1.00  0.00    +0.097 C 
BRANCH   3   6
ATOM      6  N   UNL     1     -25.944   2.301   9.376  1.00  0.00    +0.025 N 
ATOM      7  O   UNL     1     -26.393   3.309   8.814  1.00  0.00    -0.264 OA
ATOM      8  O   UNL     1     -25.916   1.169   8.876  1.00  0.00    -0.264 OA
ENDBRANCH   3   6
ENDBRANCH   2   3
ENDBRANCH   1   2
BRANCH   1   9
ATOM      9  N   UNL     1     -27.958   0.505  12.391  1.00  0.00    -0.282 NA
BRANCH   9  10
ATOM     10  C   UNL     1     -29.133   1.370  12.126  1.00  0.00    +0.208 C 
BRANCH  10  11
ATOM     11  C   UNL     1     -29.596   1.261  10.681  1.00  0.00    +0.317 C 
ATOM     12  O   UNL     1     -30.647   1.688  10.227  1.00  0.00    -0.251 OA
BRANCH  11  13
ATOM     13  O   UNL     1     -28.740   0.586   9.884  1.00  0.00    -0.480 OA
ATOM     14  H   UNL     1     -27.898   0.590  10.383  1.00  0.00    +0.296 HD
ENDBRANCH  11  13
ENDBRANCH  10  11
ENDBRANCH   9  10
BRANCH   9  15
ATOM     15  C   UNL     1     -28.263  -0.495  13.443  1.00  0.00    +0.208 C 
BRANCH  15  16
ATOM     16  C   UNL     1     -28.056   0.012  14.862  1.00  0.00    +0.317 C 
ATOM     17  O   UNL     1     -28.747   0.837  15.439  1.00  0.00    -0.251 OA
BRANCH  16  18
ATOM     18  O   UNL     1     -27.022  -0.576  15.497  1.00  0.00    -0.480 OA
ATOM     19  H   UNL     1     -27.448  -1.255  16.062  1.00  0.00    +0.296 HD
ENDBRANCH  16  18
ENDBRANCH  15  16
ENDBRANCH   9  15
ENDBRANCH   1   9
TORSDOF 10
ENDMDL
MODEL 8
REMARK VINA RESULT:    -5.718      2.776      3.318
REMARK INTER + INTRA:          -9.476
REMARK INTER:                  -9.324
REMARK INTRA:                  -0.151
REMARK UNBOUND:                -0.749
REMARK SMILES CC(C)(CCN(CC(=O)O)CC(=O)O)[N+](=O)[O-]
REMARK SMILES IDX 5 1 4 2 2 3 1 4 3 5 15 6 16 7 17 8 6 9 7 10 8 11 9 12 10 13
REMARK SMILES IDX 11 15 12 16 13 17 14 18
REMARK H PARENT 10 14 14 19
ROOT
ATOM      1  C   UNL     1     -28.589   8.102   7.579  1.00  0.00    +0.093 C 
ENDROOT
BRANCH   1   2
ATOM      2  C   UNL     1     -29.763   8.466   6.655  1.00  0.00    +0.101 C 
BRANCH   2   3
ATOM      3  C   UNL     1     -31.166   8.061   7.177  1.00  0.00    +0.218 C 
ATOM      4  C   UNL     1     -31.083   6.949   8.234  1.00  0.00    +0.097 C 
ATOM      5  C   UNL     1     -31.880   9.284   7.772  1.00  0.00    +0.097 C 
BRANCH   3   6
ATOM      6  N   UNL     1     -32.032   7.593   6.001  1.00  0.00    +0.025 N 
ATOM      7  O   UNL     1     -32.506   6.450   6.064  1.00  0.00    -0.264 OA
ATOM      8  O   UNL     1     -32.186   8.368   5.049  1.00  0.00    -0.264 OA
ENDBRANCH   3   6
ENDBRANCH   2   3
ENDBRANCH   1   2
BRANCH   1   9
ATOM      9  N   UNL     1     -27.332   8.787   7.224  1.00  0.00    -0.282 NA
BRANCH   9  10
ATOM     10  C   UNL     1     -27.530  10.042   6.460  1.00  0.00    +0.208 C 
BRANCH  10  11
ATOM     11  C   UNL     1     -26.543  10.159   5.309  1.00  0.00    +0.317 C 
ATOM     12  O   UNL     1     -26.673   9.672   4.196  1.00  0.00    -0.251 OA
BRANCH  11  13
ATOM     13  O   UNL     1     -25.422  10.847   5.619  1.00  0.00    -0.480 OA
ATOM     14  H   UNL     1     -25.504  11.012   6.580  1.00  0.00    +0.296 HD
ENDBRANCH  11  13
ENDBRANCH  10  11
ENDBRANCH   9  10
BRANCH   9  15
ATOM     15  C   UNL     1     -26.404   7.874   6.513  1.00  0.00    +0.208 C 
BRANCH  15  16
ATOM     16  C   UNL     1     -25.082   7.648   7.229  1.00  0.00    +0.317 C 
ATOM     17  O   UNL     1     -24.880   6.854   8.134  1.00  0.00    -0.251 OA
BRANCH  16  18
ATOM     18  O   UNL     1     -24.072   8.398   6.741  1.00  0.00    -0.480 OA
ATOM     19  H   UNL     1     -23.275   8.036   7.184  1.00  0.00    +0.296 HD
ENDBRANCH  16  18
ENDBRANCH  15  16
ENDBRANCH   9  15
ENDBRANCH   1   9
TORSDOF 10
ENDMDL
MODEL 9
REMARK VINA RESULT:    -5.640      8.684     10.899
REMARK INTER + INTRA:          -9.356
REMARK INTER:                  -8.187
REMARK INTRA:                  -1.168
REMARK UNBOUND:                -0.749
REMARK SMILES CC(C)(CCN(CC(=O)O)CC(=O)O)[N+](=O)[O-]
REMARK SMILES IDX 5 1 4 2 2 3 1 4 3 5 15 6 16 7 17 8 6 9 7 10 8 11 9 12 10 13
REMARK SMILES IDX 11 15 12 16 13 17 14 18
REMARK H PARENT 10 14 14 19
ROOT
ATOM      1  C   UNL     1     -35.800   3.462  10.421  1.00  0.00    +0.093 C 
ENDROOT
BRANCH   1   2
ATOM      2  C   UNL     1     -34.382   3.532  11.015  1.00  0.00    +0.101 C 
BRANCH   2   3
ATOM      3  C   UNL     1     -33.498   2.284  10.763  1.00  0.00    +0.218 C 
ATOM      4  C   UNL     1     -32.940   1.704  12.072  1.00  0.00    +0.097 C 
ATOM      5  C   UNL     1     -34.306   1.206  10.026  1.00  0.00    +0.097 C 
BRANCH   3   6
ATOM      6  N   UNL     1     -32.340   2.660   9.830  1.00  0.00    +0.025 N 
ATOM      7  O   UNL     1     -32.234   3.852   9.509  1.00  0.00    -0.264 OA
ATOM      8  O   UNL     1     -31.598   1.754   9.431  1.00  0.00    -0.264 OA
ENDBRANCH   3   6
ENDBRANCH   2   3
ENDBRANCH   1   2
BRANCH   1   9
ATOM      9  N   UNL     1     -36.120   4.600   9.538  1.00  0.00    -0.282 NA
BRANCH   9  10
ATOM     10  C   UNL     1     -37.573   4.859   9.399  1.00  0.00    +0.208 C 
BRANCH  10  11
ATOM     11  C   UNL     1     -37.951   6.233   9.931  1.00  0.00    +0.317 C 
ATOM     12  O   UNL     1     -39.086   6.658  10.086  1.00  0.00    -0.251 OA
BRANCH  11  13
ATOM     13  O   UNL     1     -36.890   7.023  10.204  1.00  0.00    -0.480 OA
ATOM     14  H   UNL     1     -36.123   6.418  10.149  1.00  0.00    +0.296 HD
ENDBRANCH  11  13
ENDBRANCH  10  11
ENDBRANCH   9  10
BRANCH   9  15
ATOM     15  C   UNL     1     -35.479   4.446   8.209  1.00  0.00    +0.208 C 
BRANCH  15  16
ATOM     16  C   UNL     1     -34.766   5.694   7.713  1.00  0.00    +0.317 C 
ATOM     17  O   UNL     1     -35.238   6.819   7.661  1.00  0.00    -0.251 OA
BRANCH  16  18
ATOM     18  O   UNL     1     -33.486   5.473   7.352  1.00  0.00    -0.480 OA
ATOM     19  H   UNL     1     -33.543   4.714   6.733  1.00  0.00    +0.296 HD
ENDBRANCH  16  18
ENDBRANCH  15  16
ENDBRANCH   9  15
ENDBRANCH   1   9
TORSDOF 10
ENDMDL
