REMARK SMILES Cc1ccc(CCC(=O)O)cc1
REMARK SMILES IDX 7 1 6 2 5 3 2 4 3 5 12 6 4 7 11 8 1 9 8 10 9 11 10 12
REMARK H PARENT 10 13
ROOT
ATOM      1  C   UNL     1       2.329  -0.776  -0.457  1.00  0.00    +0.127 C 
ENDROOT
BRANCH   1   2
ATOM      2  C   UNL     1       1.645   0.490   0.050  1.00  0.00    +0.047 C 
BRANCH   2   3
ATOM      3  C   UNL     1       0.150   0.309   0.148  1.00  0.00    -0.047 A 
ATOM      4  C   UNL     1      -2.635  -0.082   0.312  1.00  0.00    -0.051 A 
ATOM      5  C   UNL     1      -2.055   0.413  -0.861  1.00  0.00    +0.004 A 
ATOM      6  C   UNL     1      -1.813  -0.364   1.408  1.00  0.00    +0.004 A 
ATOM      7  C   UNL     1      -0.674   0.600  -0.946  1.00  0.00    +0.004 A 
ATOM      8  C   UNL     1      -0.431  -0.177   1.325  1.00  0.00    +0.004 A 
ATOM      9  C   UNL     1      -4.122  -0.250   0.414  1.00  0.00    +0.044 C 
ENDBRANCH   2   3
ENDBRANCH   1   2
BRANCH   1  10
ATOM     10  C   UNL     1       3.815  -0.583  -0.550  1.00  0.00    +0.303 C 
ATOM     11  O   UNL     1       4.454   0.418  -0.276  1.00  0.00    -0.252 OA
BRANCH  10  12
ATOM     12  O   UNL     1       4.440  -1.691  -0.996  1.00  0.00    -0.481 OA
ATOM     13  H   UNL     1       5.388  -1.443  -1.012  1.00  0.00    +0.296 HD
ENDBRANCH  10  12
ENDBRANCH   1  10
TORSDOF 4
