REMARK SMILES O=C(O)C=CC(=O)c1ccccc1
REMARK SMILES IDX 2 1 1 2 3 3 4 5 5 6 6 7 7 8 8 9 9 10 13 11 10 12 12 13 11 14
REMARK H PARENT 3 4
ROOT
ATOM      1  C   UNL     1       3.407   0.084   0.008  1.00  0.00    +0.328 C 
ATOM      2  O   UNL     1       3.022   0.900   0.821  1.00  0.00    -0.247 OA
ENDROOT
BRANCH   1   3
ATOM      3  O   UNL     1       4.638  -0.447   0.040  1.00  0.00    -0.478 OA
ATOM      4  H   UNL     1       5.018  -0.086   0.868  1.00  0.00    +0.297 HD
ENDBRANCH   1   3
BRANCH   1   5
ATOM      5  C   UNL     1       2.681  -0.408  -1.168  1.00  0.00    +0.097 C 
ATOM      6  C   UNL     1       1.374  -0.701  -1.156  1.00  0.00    +0.060 C 
BRANCH   6   7
ATOM      7  C   UNL     1       0.567  -0.737   0.091  1.00  0.00    +0.186 C 
ATOM      8  O   UNL     1       1.000  -1.280   1.101  1.00  0.00    -0.289 OA
BRANCH   7   9
ATOM      9  C   UNL     1      -0.819  -0.195   0.040  1.00  0.00    +0.022 A 
ATOM     10  C   UNL     1      -1.242   0.695  -0.957  1.00  0.00    +0.012 A 
ATOM     11  C   UNL     1      -1.718  -0.582   1.043  1.00  0.00    +0.012 A 
ATOM     12  C   UNL     1      -2.555   1.174  -0.957  1.00  0.00    +0.001 A 
ATOM     13  C   UNL     1      -3.029  -0.102   1.039  1.00  0.00    +0.001 A 
ATOM     14  C   UNL     1      -3.447   0.773   0.037  1.00  0.00    +0.000 A 
ENDBRANCH   7   9
ENDBRANCH   6   7
ENDBRANCH   1   5
TORSDOF 4
