REMARK SMILES CCCCCC(C)(C)O
REMARK SMILES IDX 4 1 3 2 2 3 1 4 5 5 6 6 7 7 8 8 9 9
REMARK H PARENT 9 10
ROOT
ATOM      1  C   UNL     1       0.196   0.380   0.704  1.00  0.00    +0.003 C 
ENDROOT
BRANCH   1   2
ATOM      2  C   UNL     1       1.681   0.708   0.503  1.00  0.00    -0.000 C 
BRANCH   2   3
ATOM      3  C   UNL     1       2.489  -0.455  -0.075  1.00  0.00    -0.003 C 
ATOM      4  C   UNL     1       3.971  -0.119  -0.141  1.00  0.00    +0.004 C 
ENDBRANCH   2   3
ENDBRANCH   1   2
BRANCH   1   5
ATOM      5  C   UNL     1      -0.554   0.149  -0.612  1.00  0.00    +0.034 C 
BRANCH   5   6
ATOM      6  C   UNL     1      -2.075  -0.072  -0.476  1.00  0.00    +0.059 C 
ATOM      7  C   UNL     1      -2.414  -1.312   0.354  1.00  0.00    +0.042 C 
ATOM      8  C   UNL     1      -2.793   1.155   0.087  1.00  0.00    +0.042 C 
BRANCH   6   9
ATOM      9  O   UNL     1      -2.597  -0.278  -1.796  1.00  0.00    -0.390 OA
ATOM     10  H   UNL     1      -2.178  -1.075  -2.163  1.00  0.00    +0.211 HD
ENDBRANCH   6   9
ENDBRANCH   5   6
ENDBRANCH   1   5
TORSDOF 5
