MODEL 1
REMARK VINA RESULT:    -6.891      0.000      0.000
REMARK INTER + INTRA:          -9.486
REMARK INTER:                 -10.517
REMARK INTRA:                   1.031
REMARK UNBOUND:                 1.031
REMARK SMILES COc1cc2c(c(OC)c1OC)-c1ccc(OC)c(=O)cc1[C@H](NC(C)=O)CC2
REMARK SMILES IDX 16 1 15 2 14 3 13 4 22 5 21 6 19 7 20 8 17 9 18 10 6 11 7 12
REMARK SMILES IDX 5 13 10 14 4 15 3 16 8 17 9 18 29 19 11 21 12 22 2 23 1 24
REMARK SMILES IDX 23 25 28 26 24 28 25 29 27 30 26 32
REMARK H PARENT 24 31
REMARK Flexibility Score:    8.900
ROOT
ATOM      1  C   UNL     1     -32.872   5.882   7.132  1.00  0.00    +0.166 A 
ATOM      2  C   UNL     1     -34.095   5.335   7.124  1.00  0.00    +0.051 A 
ATOM      3  C   UNL     1     -34.667   4.561   8.060  1.00  0.00    +0.013 A 
ATOM      4  C   UNL     1     -34.255   3.903   9.177  1.00  0.00    -0.009 A 
ATOM      5  C   UNL     1     -32.985   3.752   9.661  1.00  0.00    -0.014 A 
ATOM      6  C   UNL     1     -31.967   4.565   9.290  1.00  0.00    +0.062 A 
ATOM      7  C   UNL     1     -32.063   5.790   8.416  1.00  0.00    +0.220 A 
ATOM      8  O   UNL     1     -31.467   6.777   8.811  1.00  0.00    -0.286 OA
ENDROOT
BRANCH   1   9
ATOM      9  O   UNL     1     -32.286   6.621   6.126  1.00  0.00    -0.493 OA
ATOM     10  C   UNL     1     -33.101   7.068   5.051  1.00  0.00    +0.278 C 
ENDBRANCH   1   9
BRANCH   4  11
ATOM     11  C   UNL     1     -35.449   3.260   9.851  1.00  0.00    +0.031 A 
ATOM     12  C   UNL     1     -36.543   4.055  10.277  1.00  0.00    +0.172 A 
ATOM     13  C   UNL     1     -35.557   1.873  10.051  1.00  0.00    -0.032 A 
ATOM     14  C   UNL     1     -37.740   3.478  10.735  1.00  0.00    +0.203 A 
ATOM     15  C   UNL     1     -36.755   1.301  10.535  1.00  0.00    +0.055 A 
ATOM     16  C   UNL     1     -37.855   2.091  10.867  1.00  0.00    +0.164 A 
BRANCH  12  17
ATOM     17  O   UNL     1     -36.477   5.430  10.169  1.00  0.00    -0.492 OA
ATOM     18  C   UNL     1     -36.206   6.004  11.449  1.00  0.00    +0.278 C 
ENDBRANCH  12  17
BRANCH  13  19
ATOM     19  C   UNL     1     -34.333   1.007   9.966  1.00  0.00    +0.039 CG0
ATOM     20  G   UNL     1     -33.421   1.488  11.089  1.00  0.00    +0.000 G0
ENDBRANCH  13  19
BRANCH  14  21
ATOM     21  O   UNL     1     -38.781   4.292  11.117  1.00  0.00    -0.490 OA
ATOM     22  C   UNL     1     -39.430   4.820   9.961  1.00  0.00    +0.278 C 
ENDBRANCH  14  21
BRANCH  16  23
ATOM     23  O   UNL     1     -39.051   1.622  11.342  1.00  0.00    -0.493 OA
ATOM     24  C   UNL     1     -39.160   0.227  11.586  1.00  0.00    +0.278 C 
ENDBRANCH  16  23
ENDBRANCH   4  11
BRANCH   5  25
ATOM     25  C   UNL     1     -32.512   2.650  10.666  1.00  0.00    +0.113 C 
BRANCH  25  26
ATOM     26  C   UNL     1     -33.424   1.480  11.078  1.00  0.00    +0.034 CG0
ATOM     27  G   UNL     1     -34.335   0.997   9.955  1.00  0.00    +0.000 G0
ENDBRANCH  25  26
BRANCH  25  28
ATOM     28  N   UNL     1     -31.306   2.035  10.074  1.00  0.00    -0.350 N 
ATOM     29  C   UNL     1     -30.352   1.408  10.842  1.00  0.00    +0.217 C 
ATOM     30  O   UNL     1     -30.402   1.340  12.065  1.00  0.00    -0.275 OA
ATOM     31  H   UNL     1     -31.276   1.931   9.069  1.00  0.00    +0.164 HD
ATOM     32  C   UNL     1     -29.226   0.796  10.053  1.00  0.00    +0.114 C 
ENDBRANCH  25  28
ENDBRANCH   5  25
TORSDOF 5
ENDMDL
MODEL 2
REMARK VINA RESULT:    -6.125      3.858      8.034
REMARK INTER + INTRA:          -8.316
REMARK INTER:                  -9.630
REMARK INTRA:                   1.314
REMARK UNBOUND:                 1.031
REMARK SMILES COc1cc2c(c(OC)c1OC)-c1ccc(OC)c(=O)cc1[C@H](NC(C)=O)CC2
REMARK SMILES IDX 16 1 15 2 14 3 13 4 22 5 21 6 19 7 20 8 17 9 18 10 6 11 7 12
REMARK SMILES IDX 5 13 10 14 4 15 3 16 8 17 9 18 29 19 11 21 12 22 2 23 1 24
REMARK SMILES IDX 23 25 28 26 24 28 25 29 27 30 26 32
REMARK H PARENT 24 31
REMARK Flexibility Score:    8.900
ROOT
ATOM      1  C   UNL     1     -26.523   3.571  11.063  1.00  0.00    +0.166 A 
ATOM      2  C   UNL     1     -26.647   2.794  12.148  1.00  0.00    +0.051 A 
ATOM      3  C   UNL     1     -27.526   1.803  12.365  1.00  0.00    +0.013 A 
ATOM      4  C   UNL     1     -28.658   1.344  11.766  1.00  0.00    -0.009 A 
ATOM      5  C   UNL     1     -29.344   1.879  10.711  1.00  0.00    -0.014 A 
ATOM      6  C   UNL     1     -28.780   2.764   9.854  1.00  0.00    +0.062 A 
ATOM      7  C   UNL     1     -27.339   3.208   9.833  1.00  0.00    +0.220 A 
ATOM      8  O   UNL     1     -26.803   3.233   8.739  1.00  0.00    -0.286 OA
ENDROOT
BRANCH   1   9
ATOM      9  O   UNL     1     -25.651   4.626  10.893  1.00  0.00    -0.493 OA
ATOM     10  C   UNL     1     -24.384   4.370  10.303  1.00  0.00    +0.278 C 
ENDBRANCH   1   9
BRANCH   4  11
ATOM     11  C   UNL     1     -29.142   0.104  12.487  1.00  0.00    +0.031 A 
ATOM     12  C   UNL     1     -28.304  -1.036  12.588  1.00  0.00    +0.172 A 
ATOM     13  C   UNL     1     -30.396   0.028  13.116  1.00  0.00    -0.032 A 
ATOM     14  C   UNL     1     -28.643  -2.130  13.403  1.00  0.00    +0.203 A 
ATOM     15  C   UNL     1     -30.741  -1.087  13.915  1.00  0.00    +0.055 A 
ATOM     16  C   UNL     1     -29.868  -2.163  14.075  1.00  0.00    +0.164 A 
BRANCH  12  17
ATOM     17  O   UNL     1     -27.085  -1.053  11.941  1.00  0.00    -0.492 OA
ATOM     18  C   UNL     1     -27.278  -1.326  10.552  1.00  0.00    +0.278 C 
ENDBRANCH  12  17
BRANCH  13  19
ATOM     19  C   UNL     1     -31.469   1.019  12.769  1.00  0.00    +0.039 CG0
ATOM     20  G   UNL     1     -31.769   0.787  11.293  1.00  0.00    +0.000 G0
ENDBRANCH  13  19
BRANCH  14  21
ATOM     21  O   UNL     1     -27.787  -3.205  13.484  1.00  0.00    -0.490 OA
ATOM     22  C   UNL     1     -28.195  -4.216  12.563  1.00  0.00    +0.278 C 
ENDBRANCH  14  21
BRANCH  16  23
ATOM     23  O   UNL     1     -30.121  -3.280  14.827  1.00  0.00    -0.493 OA
ATOM     24  C   UNL     1     -30.445  -3.091  16.197  1.00  0.00    +0.278 C 
ENDBRANCH  16  23
ENDBRANCH   4  11
BRANCH   5  25
ATOM     25  C   UNL     1     -30.837   1.587  10.346  1.00  0.00    +0.113 C 
BRANCH  25  26
ATOM     26  C   UNL     1     -31.762   0.789  11.283  1.00  0.00    +0.034 CG0
ATOM     27  G   UNL     1     -31.474   1.022  12.762  1.00  0.00    +0.000 G0
ENDBRANCH  25  26
BRANCH  25  28
ATOM     28  N   UNL     1     -31.486   2.901  10.159  1.00  0.00    -0.350 N 
ATOM     29  C   UNL     1     -32.688   3.037   9.502  1.00  0.00    +0.217 C 
ATOM     30  O   UNL     1     -33.293   2.101   8.993  1.00  0.00    -0.275 OA
ATOM     31  H   UNL     1     -31.115   3.687  10.675  1.00  0.00    +0.164 HD
ATOM     32  C   UNL     1     -33.215   4.447   9.461  1.00  0.00    +0.114 C 
ENDBRANCH  25  28
ENDBRANCH   5  25
TORSDOF 5
ENDMDL
MODEL 3
REMARK VINA RESULT:    -5.319      2.105      6.461
REMARK INTER + INTRA:          -7.087
REMARK INTER:                  -7.948
REMARK INTRA:                   0.861
REMARK UNBOUND:                 1.031
REMARK SMILES COc1cc2c(c(OC)c1OC)-c1ccc(OC)c(=O)cc1[C@H](NC(C)=O)CC2
REMARK SMILES IDX 16 1 15 2 14 3 13 4 22 5 21 6 19 7 20 8 17 9 18 10 6 11 7 12
REMARK SMILES IDX 5 13 10 14 4 15 3 16 8 17 9 18 29 19 11 21 12 22 2 23 1 24
REMARK SMILES IDX 23 25 28 26 24 28 25 29 27 30 26 32
REMARK H PARENT 24 31
REMARK Flexibility Score:    8.900
ROOT
ATOM      1  C   UNL     1     -36.928   4.094   9.394  1.00  0.00    +0.166 A 
ATOM      2  C   UNL     1     -36.407   5.303   9.142  1.00  0.00    +0.051 A 
ATOM      3  C   UNL     1     -35.168   5.604   8.722  1.00  0.00    +0.013 A 
ATOM      4  C   UNL     1     -33.988   4.940   8.585  1.00  0.00    -0.009 A 
ATOM      5  C   UNL     1     -33.676   3.664   8.965  1.00  0.00    -0.014 A 
ATOM      6  C   UNL     1     -34.624   2.727   9.207  1.00  0.00    +0.062 A 
ATOM      7  C   UNL     1     -36.111   2.874   9.001  1.00  0.00    +0.220 A 
ATOM      8  O   UNL     1     -36.667   1.945   8.442  1.00  0.00    -0.286 OA
ENDROOT
BRANCH   1   9
ATOM      9  O   UNL     1     -38.186   3.819   9.887  1.00  0.00    -0.493 OA
ATOM     10  C   UNL     1     -38.296   3.038  11.068  1.00  0.00    +0.278 C 
ENDBRANCH   1   9
BRANCH   4  11
ATOM     11  C   UNL     1     -32.961   5.862   7.962  1.00  0.00    +0.031 A 
ATOM     12  C   UNL     1     -33.196   6.434   6.685  1.00  0.00    +0.172 A 
ATOM     13  C   UNL     1     -31.770   6.227   8.611  1.00  0.00    -0.032 A 
ATOM     14  C   UNL     1     -32.359   7.432   6.160  1.00  0.00    +0.203 A 
ATOM     15  C   UNL     1     -30.919   7.214   8.064  1.00  0.00    +0.055 A 
ATOM     16  C   UNL     1     -31.210   7.832   6.848  1.00  0.00    +0.164 A 
BRANCH  12  17
ATOM     17  O   UNL     1     -34.316   6.070   5.965  1.00  0.00    -0.492 OA
ATOM     18  C   UNL     1     -34.017   4.942   5.141  1.00  0.00    +0.278 C 
ENDBRANCH  12  17
BRANCH  13  19
ATOM     19  C   UNL     1     -31.273   5.417   9.774  1.00  0.00    +0.039 CG0
ATOM     20  G   UNL     1     -30.995   4.029   9.209  1.00  0.00    +0.000 G0
ENDBRANCH  13  19
BRANCH  14  21
ATOM     21  O   UNL     1     -32.640   7.971   4.925  1.00  0.00    -0.490 OA
ATOM     22  C   UNL     1     -31.821   7.355   3.932  1.00  0.00    +0.278 C 
ENDBRANCH  14  21
BRANCH  16  23
ATOM     23  O   UNL     1     -30.443   8.795   6.247  1.00  0.00    -0.493 OA
ATOM     24  C   UNL     1     -30.255  10.017   6.946  1.00  0.00    +0.278 C 
ENDBRANCH  16  23
ENDBRANCH   4  11
BRANCH   5  25
ATOM     25  C   UNL     1     -32.234   3.103   9.193  1.00  0.00    +0.113 C 
BRANCH  25  26
ATOM     26  C   UNL     1     -30.998   4.021   9.212  1.00  0.00    +0.034 CG0
ATOM     27  G   UNL     1     -31.281   5.407   9.779  1.00  0.00    +0.000 G0
ENDBRANCH  25  26
BRANCH  25  28
ATOM     28  N   UNL     1     -32.252   2.421  10.504  1.00  0.00    -0.350 N 
ATOM     29  C   UNL     1     -31.586   1.238  10.724  1.00  0.00    +0.217 C 
ATOM     30  O   UNL     1     -30.961   0.639   9.855  1.00  0.00    -0.275 OA
ATOM     31  H   UNL     1     -32.626   2.930  11.293  1.00  0.00    +0.164 HD
ATOM     32  C   UNL     1     -31.679   0.727  12.137  1.00  0.00    +0.114 C 
ENDBRANCH  25  28
ENDBRANCH   5  25
TORSDOF 5
ENDMDL
MODEL 4
REMARK VINA RESULT:    -5.269      2.890      4.768
REMARK INTER + INTRA:          -7.011
REMARK INTER:                  -8.347
REMARK INTRA:                   1.336
REMARK UNBOUND:                 1.031
REMARK SMILES COc1cc2c(c(OC)c1OC)-c1ccc(OC)c(=O)cc1[C@H](NC(C)=O)CC2
REMARK SMILES IDX 16 1 15 2 14 3 13 4 22 5 21 6 19 7 20 8 17 9 18 10 6 11 7 12
REMARK SMILES IDX 5 13 10 14 4 15 3 16 8 17 9 18 29 19 11 21 12 22 2 23 1 24
REMARK SMILES IDX 23 25 28 26 24 28 25 29 27 30 26 32
REMARK H PARENT 24 31
REMARK Flexibility Score:    8.900
ROOT
ATOM      1  C   UNL     1     -27.124   3.646   9.602  1.00  0.00    +0.166 A 
ATOM      2  C   UNL     1     -28.249   3.680   8.876  1.00  0.00    +0.051 A 
ATOM      3  C   UNL     1     -29.472   3.241   9.215  1.00  0.00    +0.013 A 
ATOM      4  C   UNL     1     -30.002   2.483  10.212  1.00  0.00    -0.009 A 
ATOM      5  C   UNL     1     -29.354   1.805  11.208  1.00  0.00    -0.014 A 
ATOM      6  C   UNL     1     -28.082   2.094  11.572  1.00  0.00    +0.062 A 
ATOM      7  C   UNL     1     -27.232   3.230  11.060  1.00  0.00    +0.220 A 
ATOM      8  O   UNL     1     -26.627   3.868  11.904  1.00  0.00    -0.286 OA
ENDROOT
BRANCH   1   9
ATOM      9  O   UNL     1     -25.866   4.048   9.202  1.00  0.00    -0.493 OA
ATOM     10  C   UNL     1     -25.757   5.136   8.296  1.00  0.00    +0.278 C 
ENDBRANCH   1   9
BRANCH   4  11
ATOM     11  C   UNL     1     -31.507   2.426  10.056  1.00  0.00    +0.031 A 
ATOM     12  C   UNL     1     -32.271   3.621  10.058  1.00  0.00    +0.172 A 
ATOM     13  C   UNL     1     -32.209   1.225   9.863  1.00  0.00    -0.032 A 
ATOM     14  C   UNL     1     -33.638   3.623   9.731  1.00  0.00    +0.203 A 
ATOM     15  C   UNL     1     -33.590   1.232   9.560  1.00  0.00    +0.055 A 
ATOM     16  C   UNL     1     -34.310   2.423   9.478  1.00  0.00    +0.164 A 
BRANCH  12  17
ATOM     17  O   UNL     1     -31.653   4.831  10.304  1.00  0.00    -0.492 OA
ATOM     18  C   UNL     1     -31.752   5.669   9.151  1.00  0.00    +0.278 C 
ENDBRANCH  12  17
BRANCH  13  19
ATOM     19  C   UNL     1     -31.556  -0.086  10.197  1.00  0.00    +0.039 CG0
ATOM     20  G   UNL     1     -31.288  -0.032  11.696  1.00  0.00    +0.000 G0
ENDBRANCH  13  19
BRANCH  14  21
ATOM     21  O   UNL     1     -34.331   4.811   9.726  1.00  0.00    -0.490 OA
ATOM     22  C   UNL     1     -34.801   5.100  11.043  1.00  0.00    +0.278 C 
ENDBRANCH  14  21
BRANCH  16  23
ATOM     23  O   UNL     1     -35.645   2.522   9.191  1.00  0.00    -0.493 OA
ATOM     24  C   UNL     1     -36.564   2.070  10.175  1.00  0.00    +0.278 C 
ENDBRANCH  16  23
ENDBRANCH   4  11
BRANCH   5  25
ATOM     25  C   UNL     1     -29.942   0.620  12.042  1.00  0.00    +0.113 C 
BRANCH  25  26
ATOM     26  C   UNL     1     -31.292  -0.032  11.689  1.00  0.00    +0.034 CG0
ATOM     27  G   UNL     1     -31.565  -0.086  10.190  1.00  0.00    +0.000 G0
ENDBRANCH  25  26
BRANCH  25  28
ATOM     28  N   UNL     1     -28.942  -0.467  11.987  1.00  0.00    -0.350 N 
ATOM     29  C   UNL     1     -28.557  -1.166  13.109  1.00  0.00    +0.217 C 
ATOM     30  O   UNL     1     -28.978  -0.926  14.235  1.00  0.00    -0.275 OA
ATOM     31  H   UNL     1     -28.665  -0.807  11.076  1.00  0.00    +0.164 HD
ATOM     32  C   UNL     1     -27.569  -2.269  12.843  1.00  0.00    +0.114 C 
ENDBRANCH  25  28
ENDBRANCH   5  25
TORSDOF 5
ENDMDL
