REMARK SMILES O=c1cc(CO)oc([C@H](Nc2cccc(Cl)c2)c2ccccc2)c1O
REMARK SMILES IDX 4 1 3 2 2 3 1 4 24 5 8 6 7 7 5 8 6 9 9 11 10 12 11 14 17 15
REMARK SMILES IDX 12 16 15 17 13 18 14 19 16 20 18 21 19 22 23 23 20 24 22 25
REMARK SMILES IDX 21 26 25 27
REMARK H PARENT 6 10 10 13 25 28
ROOT
ATOM      1  C   UNL     1      -3.227  -1.249  -0.084  1.00  0.00    +0.133 A 
ATOM      2  C   UNL     1      -3.890  -1.241  -1.248  1.00  0.00    +0.101 A 
ATOM      3  C   UNL     1      -3.213  -0.717  -2.441  1.00  0.00    +0.227 A 
ATOM      4  O   UNL     1      -3.763  -0.667  -3.537  1.00  0.00    -0.286 OA
ATOM      5  C   UNL     1      -1.821  -0.231  -2.285  1.00  0.00    +0.205 A 
ATOM      6  C   UNL     1      -1.254  -0.286  -1.069  1.00  0.00    +0.176 A 
ATOM      7  O   UNL     1      -1.931  -0.774   0.048  1.00  0.00    -0.457 OA
ENDROOT
BRANCH   1   8
ATOM      8  C   UNL     1      -3.830  -1.750   1.193  1.00  0.00    +0.231 C 
BRANCH   8   9
ATOM      9  O   UNL     1      -3.104  -2.892   1.627  1.00  0.00    -0.388 OA
ATOM     10  H   UNL     1      -3.485  -3.163   2.478  1.00  0.00    +0.211 HD
ENDBRANCH   8   9
ENDBRANCH   1   8
BRANCH   6  11
ATOM     11  C   UNL     1       0.171   0.165  -0.791  1.00  0.00    +0.181 C 
BRANCH  11  12
ATOM     12  N   UNL     1       0.854  -0.943  -0.111  1.00  0.00    -0.371 N 
ATOM     13  H   UNL     1       0.277  -1.375   0.605  1.00  0.00    +0.161 HD
BRANCH  12  14
ATOM     14  C   UNL     1       2.218  -0.967   0.157  1.00  0.00    +0.036 A 
ATOM     15  C   UNL     1       2.712  -1.968   1.007  1.00  0.00    +0.046 A 
ATOM     16  C   UNL     1       3.150  -0.126  -0.463  1.00  0.00    +0.026 A 
ATOM     17  C   UNL     1       4.079  -2.080   1.271  1.00  0.00    +0.043 A 
ATOM     18  C   UNL     1       4.521  -0.236  -0.200  1.00  0.00    +0.004 A 
ATOM     19  C   UNL     1       4.987  -1.213   0.674  1.00  0.00    +0.020 A 
ATOM     20 Cl   UNL     1       4.645  -3.307   2.338  1.00  0.00    -0.084 Cl
ENDBRANCH  12  14
ENDBRANCH  11  12
BRANCH  11  21
ATOM     21  C   UNL     1       0.180   1.462   0.015  1.00  0.00    -0.018 A 
ATOM     22  C   UNL     1       0.098   1.483   1.418  1.00  0.00    +0.006 A 
ATOM     23  C   UNL     1       0.223   2.690  -0.668  1.00  0.00    +0.006 A 
ATOM     24  C   UNL     1       0.084   2.693   2.115  1.00  0.00    +0.000 A 
ATOM     25  C   UNL     1       0.206   3.899   0.030  1.00  0.00    +0.000 A 
ATOM     26  C   UNL     1       0.139   3.900   1.421  1.00  0.00    +0.000 A 
ENDBRANCH  11  21
ENDBRANCH   6  11
BRANCH   5  27
ATOM     27  O   UNL     1      -1.182   0.266  -3.405  1.00  0.00    -0.502 OA
ATOM     28  H   UNL     1      -1.832   0.157  -4.133  1.00  0.00    +0.293 HD
ENDBRANCH   5  27
TORSDOF 7
