REMARK SMILES O=C[C@H](O)[C@H](O)[C@@H](O)[C@@H](O)[C@H](O)CO
REMARK SMILES IDX 9 1 11 2 13 3 14 4 12 6 10 8 7 10 8 11 5 13 6 14 3 16 4 17
REMARK SMILES IDX 2 19 1 20
REMARK H PARENT 14 5 12 7 10 9 8 12 6 15 4 18
ROOT
ATOM      1  C   UNL     1      -1.246  -0.155  -0.698  1.00  0.00    +0.176 C 
ENDROOT
BRANCH   1   2
ATOM      2  C   UNL     1      -1.996   0.531   0.452  1.00  0.00    +0.171 C 
BRANCH   2   3
ATOM      3  C   UNL     1      -1.750   2.037   0.536  1.00  0.00    +0.190 C 
BRANCH   3   4
ATOM      4  O   UNL     1      -2.539   2.579   1.595  1.00  0.00    -0.394 OA
ATOM      5  H   UNL     1      -3.426   2.181   1.476  1.00  0.00    +0.210 HD
ENDBRANCH   3   4
ENDBRANCH   2   3
BRANCH   2   6
ATOM      6  O   UNL     1      -3.414   0.334   0.259  1.00  0.00    -0.388 OA
ATOM      7  H   UNL     1      -3.506  -0.588  -0.060  1.00  0.00    +0.211 HD
ENDBRANCH   2   6
ENDBRANCH   1   2
BRANCH   1   8
ATOM      8  O   UNL     1      -1.629  -1.551  -0.709  1.00  0.00    -0.388 OA
ATOM      9  H   UNL     1      -1.171  -1.965   0.058  1.00  0.00    +0.211 HD
ENDBRANCH   1   8
BRANCH   1  10
ATOM     10  C   UNL     1       0.296  -0.041  -0.659  1.00  0.00    +0.177 C 
BRANCH  10  11
ATOM     11  O   UNL     1       0.811  -0.776  -1.781  1.00  0.00    -0.387 OA
ATOM     12  H   UNL     1       0.244  -1.569  -1.872  1.00  0.00    +0.211 HD
ENDBRANCH  10  11
BRANCH  10  13
ATOM     13  C   UNL     1       0.931  -0.574   0.653  1.00  0.00    +0.181 C 
BRANCH  13  14
ATOM     14  O   UNL     1       0.431  -1.911   0.893  1.00  0.00    -0.387 OA
ATOM     15  H   UNL     1       1.083  -2.493   0.439  1.00  0.00    +0.211 HD
ENDBRANCH  13  14
BRANCH  13  16
ATOM     16  C   UNL     1       2.473  -0.642   0.669  1.00  0.00    +0.209 C 
BRANCH  16  17
ATOM     17  O   UNL     1       2.896  -1.796  -0.063  1.00  0.00    -0.383 OA
ATOM     18  H   UNL     1       3.854  -1.906   0.074  1.00  0.00    +0.211 HD
ENDBRANCH  16  17
BRANCH  16  19
ATOM     19  C   UNL     1       3.103   0.650   0.176  1.00  0.00    +0.258 C 
ATOM     20  O   UNL     1       2.635   1.763   0.405  1.00  0.00    -0.300 OA
ENDBRANCH  16  19
ENDBRANCH  13  16
ENDBRANCH  10  13
ENDBRANCH   1  10
TORSDOF 12
