MODEL 1
REMARK VINA RESULT:    -8.522      0.000      0.000
REMARK INTER + INTRA:          -9.891
REMARK INTER:                  -9.767
REMARK INTRA:                  -0.124
REMARK UNBOUND:                -0.124
REMARK SMILES N#CSc1cc(SC#N)c2ccccc2c1N
REMARK SMILES IDX 16 1 15 2 14 3 13 4 12 5 11 6 10 7 6 8 5 9 4 10 17 11 3 14
REMARK SMILES IDX 2 15 1 16 7 17 8 18 9 19
REMARK H PARENT 17 12 17 13
ROOT
ATOM      1  C   UNL     1     -30.378  10.548   6.520  1.00  0.00    +0.054 A 
ATOM      2  C   UNL     1     -29.157  11.173   6.122  1.00  0.00    +0.007 A 
ATOM      3  C   UNL     1     -29.095  12.538   5.749  1.00  0.00    +0.011 A 
ATOM      4  C   UNL     1     -27.912  13.144   5.325  1.00  0.00    +0.001 A 
ATOM      5  C   UNL     1     -26.748  12.401   5.264  1.00  0.00    +0.001 A 
ATOM      6  C   UNL     1     -26.766  11.060   5.646  1.00  0.00    +0.010 A 
ATOM      7  C   UNL     1     -27.950  10.417   6.094  1.00  0.00    -0.002 A 
ATOM      8  C   UNL     1     -27.977   9.063   6.527  1.00  0.00    +0.031 A 
ATOM      9  C   UNL     1     -29.172   8.481   6.967  1.00  0.00    +0.035 A 
ATOM     10  C   UNL     1     -30.362   9.211   6.979  1.00  0.00    +0.047 A 
ENDROOT
BRANCH   1  11
ATOM     11  N   UNL     1     -31.571  11.306   6.632  1.00  0.00    -0.397 N 
ATOM     12  H   UNL     1     -31.600  11.912   7.447  1.00  0.00    +0.156 HD
ATOM     13  H   UNL     1     -32.418  10.753   6.550  1.00  0.00    +0.156 HD
ENDBRANCH   1  11
BRANCH  10  14
ATOM     14  S   UNL     1     -31.843   8.391   7.575  1.00  0.00    -0.008 SA
ATOM     15  C   UNL     1     -32.334   7.783   6.075  1.00  0.00    +0.138 C 
ATOM     16  N   UNL     1     -32.676   7.374   5.045  1.00  0.00    -0.185 NA
ENDBRANCH  10  14
BRANCH   8  17
ATOM     17  S   UNL     1     -26.526   7.998   6.540  1.00  0.00    -0.009 SA
ATOM     18  C   UNL     1     -27.056   6.970   7.777  1.00  0.00    +0.138 C 
ATOM     19  N   UNL     1     -27.415   6.261   8.621  1.00  0.00    -0.185 NA
ENDBRANCH   8  17
TORSDOF 3
ENDMDL
MODEL 2
REMARK VINA RESULT:    -8.134      1.486      4.198
REMARK INTER + INTRA:          -9.447
REMARK INTER:                  -9.380
REMARK INTRA:                  -0.067
REMARK UNBOUND:                -0.124
REMARK SMILES N#CSc1cc(SC#N)c2ccccc2c1N
REMARK SMILES IDX 16 1 15 2 14 3 13 4 12 5 11 6 10 7 6 8 5 9 4 10 17 11 3 14
REMARK SMILES IDX 2 15 1 16 7 17 8 18 9 19
REMARK H PARENT 17 12 17 13
ROOT
ATOM      1  C   UNL     1     -26.705   9.549   6.346  1.00  0.00    +0.054 A 
ATOM      2  C   UNL     1     -27.713  10.537   6.130  1.00  0.00    +0.007 A 
ATOM      3  C   UNL     1     -27.427  11.787   5.526  1.00  0.00    +0.011 A 
ATOM      4  C   UNL     1     -28.401  12.769   5.345  1.00  0.00    +0.001 A 
ATOM      5  C   UNL     1     -29.698  12.531   5.762  1.00  0.00    +0.001 A 
ATOM      6  C   UNL     1     -30.020  11.304   6.341  1.00  0.00    +0.010 A 
ATOM      7  C   UNL     1     -29.056  10.278   6.527  1.00  0.00    -0.002 A 
ATOM      8  C   UNL     1     -29.377   9.007   7.075  1.00  0.00    +0.031 A 
ATOM      9  C   UNL     1     -28.388   8.028   7.229  1.00  0.00    +0.035 A 
ATOM     10  C   UNL     1     -27.066   8.283   6.860  1.00  0.00    +0.047 A 
ENDROOT
BRANCH   1  11
ATOM     11  N   UNL     1     -25.380   9.759   5.884  1.00  0.00    -0.397 N 
ATOM     12  H   UNL     1     -24.761  10.169   6.577  1.00  0.00    +0.156 HD
ATOM     13  H   UNL     1     -25.329  10.255   5.000  1.00  0.00    +0.156 HD
ENDBRANCH   1  11
BRANCH  10  14
ATOM     14  S   UNL     1     -25.867   6.965   7.077  1.00  0.00    -0.008 SA
ATOM     15  C   UNL     1     -26.809   6.027   8.122  1.00  0.00    +0.138 C 
ATOM     16  N   UNL     1     -27.452   5.389   8.846  1.00  0.00    -0.185 NA
ENDBRANCH  10  14
BRANCH   8  17
ATOM     17  S   UNL     1     -31.032   8.551   7.617  1.00  0.00    -0.009 SA
ATOM     18  C   UNL     1     -31.553   7.924   6.132  1.00  0.00    +0.138 C 
ATOM     19  N   UNL     1     -31.913   7.490   5.119  1.00  0.00    -0.185 NA
ENDBRANCH   8  17
TORSDOF 3
ENDMDL
MODEL 3
REMARK VINA RESULT:    -7.671      1.692      4.325
REMARK INTER + INTRA:          -8.916
REMARK INTER:                  -8.893
REMARK INTRA:                  -0.023
REMARK UNBOUND:                -0.124
REMARK SMILES N#CSc1cc(SC#N)c2ccccc2c1N
REMARK SMILES IDX 16 1 15 2 14 3 13 4 12 5 11 6 10 7 6 8 5 9 4 10 17 11 3 14
REMARK SMILES IDX 2 15 1 16 7 17 8 18 9 19
REMARK H PARENT 17 12 17 13
ROOT
ATOM      1  C   UNL     1     -29.045   7.693   7.818  1.00  0.00    +0.054 A 
ATOM      2  C   UNL     1     -27.652   7.482   7.584  1.00  0.00    +0.007 A 
ATOM      3  C   UNL     1     -26.977   6.323   8.043  1.00  0.00    +0.011 A 
ATOM      4  C   UNL     1     -25.610   6.129   7.849  1.00  0.00    +0.001 A 
ATOM      5  C   UNL     1     -24.870   7.090   7.184  1.00  0.00    +0.001 A 
ATOM      6  C   UNL     1     -25.506   8.233   6.699  1.00  0.00    +0.010 A 
ATOM      7  C   UNL     1     -26.897   8.455   6.868  1.00  0.00    -0.002 A 
ATOM      8  C   UNL     1     -27.568   9.593   6.343  1.00  0.00    +0.031 A 
ATOM      9  C   UNL     1     -28.945   9.757   6.532  1.00  0.00    +0.035 A 
ATOM     10  C   UNL     1     -29.686   8.817   7.250  1.00  0.00    +0.047 A 
ENDROOT
BRANCH   1  11
ATOM     11  N   UNL     1     -29.826   6.697   8.458  1.00  0.00    -0.397 N 
ATOM     12  H   UNL     1     -29.840   5.806   7.969  1.00  0.00    +0.156 HD
ATOM     13  H   UNL     1     -30.763   7.003   8.698  1.00  0.00    +0.156 HD
ENDBRANCH   1  11
BRANCH  10  14
ATOM     14  S   UNL     1     -31.449   9.100   7.430  1.00  0.00    -0.008 SA
ATOM     15  C   UNL     1     -31.921   8.188   6.085  1.00  0.00    +0.138 C 
ATOM     16  N   UNL     1     -32.243   7.570   5.158  1.00  0.00    -0.185 NA
ENDBRANCH  10  14
BRANCH   8  17
ATOM     17  S   UNL     1     -26.735  10.896   5.421  1.00  0.00    -0.009 SA
ATOM     18  C   UNL     1     -28.002  12.017   5.489  1.00  0.00    +0.138 C 
ATOM     19  N   UNL     1     -28.864  12.791   5.536  1.00  0.00    -0.185 NA
ENDBRANCH   8  17
TORSDOF 3
ENDMDL
MODEL 4
REMARK VINA RESULT:    -7.128      9.757     11.750
REMARK INTER + INTRA:          -8.293
REMARK INTER:                  -8.153
REMARK INTRA:                  -0.141
REMARK UNBOUND:                -0.124
REMARK SMILES N#CSc1cc(SC#N)c2ccccc2c1N
REMARK SMILES IDX 16 1 15 2 14 3 13 4 12 5 11 6 10 7 6 8 5 9 4 10 17 11 3 14
REMARK SMILES IDX 2 15 1 16 7 17 8 18 9 19
REMARK H PARENT 17 12 17 13
ROOT
ATOM      1  C   UNL     1     -28.263   1.407  10.830  1.00  0.00    +0.054 A 
ATOM      2  C   UNL     1     -29.360   0.510  11.007  1.00  0.00    +0.007 A 
ATOM      3  C   UNL     1     -29.917  -0.223   9.929  1.00  0.00    +0.011 A 
ATOM      4  C   UNL     1     -31.011  -1.073  10.091  1.00  0.00    +0.001 A 
ATOM      5  C   UNL     1     -31.584  -1.221  11.340  1.00  0.00    +0.001 A 
ATOM      6  C   UNL     1     -31.048  -0.532  12.428  1.00  0.00    +0.010 A 
ATOM      7  C   UNL     1     -29.928   0.330  12.301  1.00  0.00    -0.002 A 
ATOM      8  C   UNL     1     -29.343   1.006  13.407  1.00  0.00    +0.031 A 
ATOM      9  C   UNL     1     -28.232   1.838  13.225  1.00  0.00    +0.035 A 
ATOM     10  C   UNL     1     -27.684   2.033  11.956  1.00  0.00    +0.047 A 
ENDROOT
BRANCH   1  11
ATOM     11  N   UNL     1     -27.635   1.535   9.564  1.00  0.00    -0.397 N 
ATOM     12  H   UNL     1     -26.845   2.173   9.558  1.00  0.00    +0.156 HD
ATOM     13  H   UNL     1     -28.280   1.734   8.806  1.00  0.00    +0.156 HD
ENDBRANCH   1  11
BRANCH  10  14
ATOM     14  S   UNL     1     -26.251   3.105  11.819  1.00  0.00    -0.008 SA
ATOM     15  C   UNL     1     -25.115   1.869  11.605  1.00  0.00    +0.138 C 
ATOM     16  N   UNL     1     -24.336   1.021  11.469  1.00  0.00    -0.185 NA
ENDBRANCH  10  14
BRANCH   8  17
ATOM     17  S   UNL     1     -29.961   0.867  15.092  1.00  0.00    -0.009 SA
ATOM     18  C   UNL     1     -28.610   0.067  15.725  1.00  0.00    +0.138 C 
ATOM     19  N   UNL     1     -27.685  -0.477  16.166  1.00  0.00    -0.185 NA
ENDBRANCH   8  17
TORSDOF 3
ENDMDL
MODEL 5
REMARK VINA RESULT:    -6.969      8.457     10.608
REMARK INTER + INTRA:          -8.111
REMARK INTER:                  -7.841
REMARK INTRA:                  -0.271
REMARK UNBOUND:                -0.124
REMARK SMILES N#CSc1cc(SC#N)c2ccccc2c1N
REMARK SMILES IDX 16 1 15 2 14 3 13 4 12 5 11 6 10 7 6 8 5 9 4 10 17 11 3 14
REMARK SMILES IDX 2 15 1 16 7 17 8 18 9 19
REMARK H PARENT 17 12 17 13
ROOT
ATOM      1  C   UNL     1     -29.367   2.594  10.330  1.00  0.00    +0.054 A 
ATOM      2  C   UNL     1     -30.613   1.925  10.534  1.00  0.00    +0.007 A 
ATOM      3  C   UNL     1     -31.744   2.171   9.717  1.00  0.00    +0.011 A 
ATOM      4  C   UNL     1     -32.972   1.548   9.934  1.00  0.00    +0.001 A 
ATOM      5  C   UNL     1     -33.109   0.651  10.978  1.00  0.00    +0.001 A 
ATOM      6  C   UNL     1     -32.010   0.367  11.789  1.00  0.00    +0.010 A 
ATOM      7  C   UNL     1     -30.743   0.975  11.587  1.00  0.00    -0.002 A 
ATOM      8  C   UNL     1     -29.603   0.665  12.377  1.00  0.00    +0.031 A 
ATOM      9  C   UNL     1     -28.374   1.288  12.128  1.00  0.00    +0.035 A 
ATOM     10  C   UNL     1     -28.246   2.235  11.111  1.00  0.00    +0.047 A 
ENDROOT
BRANCH   1  11
ATOM     11  N   UNL     1     -29.198   3.482   9.237  1.00  0.00    -0.397 N 
ATOM     12  H   UNL     1     -29.016   4.443   9.510  1.00  0.00    +0.156 HD
ATOM     13  H   UNL     1     -29.938   3.426   8.545  1.00  0.00    +0.156 HD
ENDBRANCH   1  11
BRANCH  10  14
ATOM     14  S   UNL     1     -26.629   2.972  10.852  1.00  0.00    -0.008 SA
ATOM     15  C   UNL     1     -26.100   1.855   9.696  1.00  0.00    +0.138 C 
ATOM     16  N   UNL     1     -25.734   1.084   8.911  1.00  0.00    -0.185 NA
ENDBRANCH  10  14
BRANCH   8  17
ATOM     17  S   UNL     1     -29.631  -0.515  13.737  1.00  0.00    -0.009 SA
ATOM     18  C   UNL     1     -29.371   0.612  14.972  1.00  0.00    +0.138 C 
ATOM     19  N   UNL     1     -29.197   1.381  15.824  1.00  0.00    -0.185 NA
ENDBRANCH   8  17
TORSDOF 3
ENDMDL
MODEL 6
REMARK VINA RESULT:    -6.912      2.303      5.860
REMARK INTER + INTRA:          -8.046
REMARK INTER:                  -8.064
REMARK INTRA:                   0.018
REMARK UNBOUND:                -0.124
REMARK SMILES N#CSc1cc(SC#N)c2ccccc2c1N
REMARK SMILES IDX 16 1 15 2 14 3 13 4 12 5 11 6 10 7 6 8 5 9 4 10 17 11 3 14
REMARK SMILES IDX 2 15 1 16 7 17 8 18 9 19
REMARK H PARENT 17 12 17 13
ROOT
ATOM      1  C   UNL     1     -28.288   7.658   7.806  1.00  0.00    +0.054 A 
ATOM      2  C   UNL     1     -29.702   7.493   7.917  1.00  0.00    +0.007 A 
ATOM      3  C   UNL     1     -30.286   6.313   8.442  1.00  0.00    +0.011 A 
ATOM      4  C   UNL     1     -31.666   6.133   8.520  1.00  0.00    +0.001 A 
ATOM      5  C   UNL     1     -32.512   7.133   8.076  1.00  0.00    +0.001 A 
ATOM      6  C   UNL     1     -31.973   8.317   7.574  1.00  0.00    +0.010 A 
ATOM      7  C   UNL     1     -30.573   8.538   7.494  1.00  0.00    -0.002 A 
ATOM      8  C   UNL     1     -30.008   9.755   7.025  1.00  0.00    +0.031 A 
ATOM      9  C   UNL     1     -28.619   9.921   6.975  1.00  0.00    +0.035 A 
ATOM     10  C   UNL     1     -27.761   8.894   7.370  1.00  0.00    +0.047 A 
ENDROOT
BRANCH   1  11
ATOM     11  N   UNL     1     -27.407   6.661   8.298  1.00  0.00    -0.397 N 
ATOM     12  H   UNL     1     -26.425   6.916   8.245  1.00  0.00    +0.156 HD
ATOM     13  H   UNL     1     -27.573   5.739   7.908  1.00  0.00    +0.156 HD
ENDBRANCH   1  11
BRANCH  10  14
ATOM     14  S   UNL     1     -25.994   9.201   7.288  1.00  0.00    -0.008 SA
ATOM     15  C   UNL     1     -26.039  10.174   5.905  1.00  0.00    +0.138 C 
ATOM     16  N   UNL     1     -26.069  10.834   4.952  1.00  0.00    -0.185 NA
ENDBRANCH  10  14
BRANCH   8  17
ATOM     17  S   UNL     1     -30.994  11.152   6.460  1.00  0.00    -0.009 SA
ATOM     18  C   UNL     1     -29.695  12.097   5.924  1.00  0.00    +0.138 C 
ATOM     19  N   UNL     1     -28.810  12.747   5.552  1.00  0.00    -0.185 NA
ENDBRANCH   8  17
TORSDOF 3
ENDMDL
MODEL 7
REMARK VINA RESULT:    -6.892      6.711      8.883
REMARK INTER + INTRA:          -8.023
REMARK INTER:                  -7.782
REMARK INTRA:                  -0.241
REMARK UNBOUND:                -0.124
REMARK SMILES N#CSc1cc(SC#N)c2ccccc2c1N
REMARK SMILES IDX 16 1 15 2 14 3 13 4 12 5 11 6 10 7 6 8 5 9 4 10 17 11 3 14
REMARK SMILES IDX 2 15 1 16 7 17 8 18 9 19
REMARK H PARENT 17 12 17 13
ROOT
ATOM      1  C   UNL     1     -27.914   2.457  10.138  1.00  0.00    +0.054 A 
ATOM      2  C   UNL     1     -27.109   3.504   9.594  1.00  0.00    +0.007 A 
ATOM      3  C   UNL     1     -27.652   4.524   8.772  1.00  0.00    +0.011 A 
ATOM      4  C   UNL     1     -26.864   5.527   8.209  1.00  0.00    +0.001 A 
ATOM      5  C   UNL     1     -25.503   5.546   8.452  1.00  0.00    +0.001 A 
ATOM      6  C   UNL     1     -24.938   4.571   9.274  1.00  0.00    +0.010 A 
ATOM      7  C   UNL     1     -25.713   3.544   9.874  1.00  0.00    -0.002 A 
ATOM      8  C   UNL     1     -25.160   2.569  10.748  1.00  0.00    +0.031 A 
ATOM      9  C   UNL     1     -25.973   1.582  11.318  1.00  0.00    +0.035 A 
ATOM     10  C   UNL     1     -27.338   1.527  11.032  1.00  0.00    +0.047 A 
ENDROOT
BRANCH   1  11
ATOM     11  N   UNL     1     -29.318   2.449   9.936  1.00  0.00    -0.397 N 
ATOM     12  H   UNL     1     -29.611   2.873   9.061  1.00  0.00    +0.156 HD
ATOM     13  H   UNL     1     -29.847   2.815  10.721  1.00  0.00    +0.156 HD
ENDBRANCH   1  11
BRANCH  10  14
ATOM     14  S   UNL     1     -28.307   0.238  11.821  1.00  0.00    -0.008 SA
ATOM     15  C   UNL     1     -28.591   1.076  13.263  1.00  0.00    +0.138 C 
ATOM     16  N   UNL     1     -28.776   1.647  14.255  1.00  0.00    -0.185 NA
ENDBRANCH  10  14
BRANCH   8  17
ATOM     17  S   UNL     1     -23.414   2.505  11.183  1.00  0.00    -0.009 SA
ATOM     18  C   UNL     1     -23.229   0.834  10.986  1.00  0.00    +0.138 C 
ATOM     19  N   UNL     1     -23.096  -0.310  10.848  1.00  0.00    -0.185 NA
ENDBRANCH   8  17
TORSDOF 3
ENDMDL
MODEL 8
REMARK VINA RESULT:    -6.551      8.397     10.633
REMARK INTER + INTRA:          -7.633
REMARK INTER:                  -7.395
REMARK INTRA:                  -0.238
REMARK UNBOUND:                -0.124
REMARK SMILES N#CSc1cc(SC#N)c2ccccc2c1N
REMARK SMILES IDX 16 1 15 2 14 3 13 4 12 5 11 6 10 7 6 8 5 9 4 10 17 11 3 14
REMARK SMILES IDX 2 15 1 16 7 17 8 18 9 19
REMARK H PARENT 17 12 17 13
ROOT
ATOM      1  C   UNL     1     -28.077   2.863  10.484  1.00  0.00    +0.054 A 
ATOM      2  C   UNL     1     -29.269   2.122  10.751  1.00  0.00    +0.007 A 
ATOM      3  C   UNL     1     -30.403   2.186   9.904  1.00  0.00    +0.011 A 
ATOM      4  C   UNL     1     -31.581   1.493  10.179  1.00  0.00    +0.001 A 
ATOM      5  C   UNL     1     -31.663   0.707  11.314  1.00  0.00    +0.001 A 
ATOM      6  C   UNL     1     -30.558   0.603  12.159  1.00  0.00    +0.010 A 
ATOM      7  C   UNL     1     -29.340   1.284  11.901  1.00  0.00    -0.002 A 
ATOM      8  C   UNL     1     -28.192   1.155  12.728  1.00  0.00    +0.031 A 
ATOM      9  C   UNL     1     -27.013   1.844  12.422  1.00  0.00    +0.035 A 
ATOM     10  C   UNL     1     -26.943   2.682  11.307  1.00  0.00    +0.047 A 
ENDROOT
BRANCH   1  11
ATOM     11  N   UNL     1     -27.961   3.637   9.301  1.00  0.00    -0.397 N 
ATOM     12  H   UNL     1     -27.873   3.084   8.453  1.00  0.00    +0.156 HD
ATOM     13  H   UNL     1     -27.247   4.357   9.351  1.00  0.00    +0.156 HD
ENDBRANCH   1  11
BRANCH  10  14
ATOM     14  S   UNL     1     -25.386   3.514  10.981  1.00  0.00    -0.008 SA
ATOM     15  C   UNL     1     -24.697   2.266  10.070  1.00  0.00    +0.138 C 
ATOM     16  N   UNL     1     -24.221   1.407   9.453  1.00  0.00    -0.185 NA
ENDBRANCH  10  14
BRANCH   8  17
ATOM     17  S   UNL     1     -28.148   0.132  14.209  1.00  0.00    -0.009 SA
ATOM     18  C   UNL     1     -27.855  -1.336  13.418  1.00  0.00    +0.138 C 
ATOM     19  N   UNL     1     -27.650  -2.344  12.881  1.00  0.00    -0.185 NA
ENDBRANCH   8  17
TORSDOF 3
ENDMDL
MODEL 9
REMARK VINA RESULT:    -6.480      8.056     11.349
REMARK INTER + INTRA:          -7.551
REMARK INTER:                  -7.262
REMARK INTRA:                  -0.289
REMARK UNBOUND:                -0.124
REMARK SMILES N#CSc1cc(SC#N)c2ccccc2c1N
REMARK SMILES IDX 16 1 15 2 14 3 13 4 12 5 11 6 10 7 6 8 5 9 4 10 17 11 3 14
REMARK SMILES IDX 2 15 1 16 7 17 8 18 9 19
REMARK H PARENT 17 12 17 13
ROOT
ATOM      1  C   UNL     1     -27.945  -0.478  11.910  1.00  0.00    +0.054 A 
ATOM      2  C   UNL     1     -26.670  -0.472  11.268  1.00  0.00    +0.007 A 
ATOM      3  C   UNL     1     -26.145  -1.619  10.621  1.00  0.00    +0.011 A 
ATOM      4  C   UNL     1     -24.885  -1.628  10.023  1.00  0.00    +0.001 A 
ATOM      5  C   UNL     1     -24.107  -0.486  10.050  1.00  0.00    +0.001 A 
ATOM      6  C   UNL     1     -24.601   0.668  10.657  1.00  0.00    +0.010 A 
ATOM      7  C   UNL     1     -25.883   0.716  11.263  1.00  0.00    -0.002 A 
ATOM      8  C   UNL     1     -26.419   1.895  11.848  1.00  0.00    +0.031 A 
ATOM      9  C   UNL     1     -27.695   1.887  12.425  1.00  0.00    +0.035 A 
ATOM     10  C   UNL     1     -28.461   0.721  12.450  1.00  0.00    +0.047 A 
ENDROOT
BRANCH   1  11
ATOM     11  N   UNL     1     -28.774  -1.628  11.853  1.00  0.00    -0.397 N 
ATOM     12  H   UNL     1     -28.263  -2.506  11.855  1.00  0.00    +0.156 HD
ATOM     13  H   UNL     1     -29.462  -1.600  11.107  1.00  0.00    +0.156 HD
ENDBRANCH   1  11
BRANCH  10  14
ATOM     14  S   UNL     1     -30.092   0.807  13.194  1.00  0.00    -0.008 SA
ATOM     15  C   UNL     1     -29.559   1.079  14.777  1.00  0.00    +0.138 C 
ATOM     16  N   UNL     1     -29.193   1.256  15.863  1.00  0.00    -0.185 NA
ENDBRANCH  10  14
BRANCH   8  17
ATOM     17  S   UNL     1     -25.532   3.461  11.911  1.00  0.00    -0.009 SA
ATOM     18  C   UNL     1     -26.193   4.111  10.495  1.00  0.00    +0.138 C 
ATOM     19  N   UNL     1     -26.646   4.564   9.528  1.00  0.00    -0.185 NA
ENDBRANCH   8  17
TORSDOF 3
ENDMDL
