REMARK SMILES CC1(O)CCCCC1
REMARK SMILES IDX 1 1 2 2 4 3 5 4 6 5 7 6 8 7 3 8
REMARK H PARENT 3 9
ROOT
ATOM      1  C   UNL     1      -2.282   0.373  -0.558  1.00  0.00    +0.042 C 
ATOM      2  C   UNL     1      -0.935  -0.114  -0.021  1.00  0.00    +0.062 C 
ATOM      3  C   UNL     1       0.011  -0.479  -1.176  1.00  0.00    +0.035 C 
ATOM      4  C   UNL     1       1.401  -0.882  -0.681  1.00  0.00    +0.003 C 
ATOM      5  C   UNL     1       2.011   0.192   0.214  1.00  0.00    +0.000 C 
ATOM      6  C   UNL     1       1.089   0.546   1.376  1.00  0.00    +0.003 C 
ATOM      7  C   UNL     1      -0.303   0.951   0.888  1.00  0.00    +0.035 C 
ENDROOT
BRANCH   2   8
ATOM      8  O   UNL     1      -1.178  -1.281   0.770  1.00  0.00    -0.390 OA
ATOM      9  H   UNL     1      -1.569  -1.959   0.193  1.00  0.00    +0.211 HD
ENDBRANCH   2   8
TORSDOF 1
