REMARK SMILES Cc1n[nH]cc1[N+](=O)[O-]
REMARK SMILES IDX 1 1 2 2 3 3 4 4 5 5 6 6 7 8 8 9 9 10
REMARK H PARENT 4 7
ROOT
ATOM      1  C   UNL     1      -1.793  -0.810   0.281  1.00  0.00    +0.076 C 
ATOM      2  C   UNL     1      -0.328  -0.574   0.211  1.00  0.00    +0.137 A 
ATOM      3  N   UNL     1       0.520  -1.546   0.585  1.00  0.00    -0.174 NA
ATOM      4  N   UNL     1       1.739  -1.013   0.401  1.00  0.00    -0.278 N 
ATOM      5  C   UNL     1       1.708   0.261  -0.077  1.00  0.00    +0.191 A 
ATOM      6  C   UNL     1       0.372   0.583  -0.214  1.00  0.00    +0.309 A 
ATOM      7  H   UNL     1       2.550  -1.583   0.624  1.00  0.00    +0.190 HD
ENDROOT
BRANCH   6   8
ATOM      8  N   UNL     1      -0.148   1.831  -0.688  1.00  0.00    +0.066 N 
ATOM      9  O   UNL     1      -1.378   1.948  -0.747  1.00  0.00    -0.258 OA
ATOM     10  O   UNL     1       0.676   2.700  -1.003  1.00  0.00    -0.258 OA
ENDBRANCH   6   8
TORSDOF 1
