REMARK SMILES Cc1ccc(S(=O)(=O)OCCCCl)cc1
REMARK SMILES IDX 9 1 6 2 7 3 8 4 5 5 2 6 3 7 15 8 4 9 14 10 1 11 10 12 11 13
REMARK SMILES IDX 12 14 13 15
REMARK H PARENT
ROOT
ATOM      1  O   UNL     1       1.509   0.064   0.267  1.00  0.00    -0.266 OA
ENDROOT
BRANCH   1   2
ATOM      2  S   UNL     1       0.589   0.807   1.389  1.00  0.00    +0.296 S 
ATOM      3  O   UNL     1       0.795   0.114   2.646  1.00  0.00    -0.194 OA
ATOM      4  O   UNL     1       0.793   2.236   1.274  1.00  0.00    -0.194 OA
BRANCH   2   5
ATOM      5  C   UNL     1      -1.070   0.477   0.850  1.00  0.00    +0.094 A 
ATOM      6  C   UNL     1      -3.666  -0.050  -0.031  1.00  0.00    -0.051 A 
ATOM      7  C   UNL     1      -2.713   0.475  -0.915  1.00  0.00    +0.005 A 
ATOM      8  C   UNL     1      -3.299  -0.326   1.293  1.00  0.00    +0.005 A 
ATOM      9  C   UNL     1      -1.415   0.743  -0.477  1.00  0.00    +0.023 A 
ATOM     10  C   UNL     1      -2.003  -0.060   1.739  1.00  0.00    +0.023 A 
ATOM     11  C   UNL     1      -5.052  -0.367  -0.513  1.00  0.00    +0.044 C 
ENDBRANCH   2   5
ENDBRANCH   1   2
BRANCH   1  12
ATOM     12  C   UNL     1       2.918   0.207   0.386  1.00  0.00    +0.184 C 
BRANCH  12  13
ATOM     13  C   UNL     1       3.574  -0.677  -0.668  1.00  0.00    +0.046 C 
BRANCH  13  14
ATOM     14  C   UNL     1       5.092  -0.700  -0.577  1.00  0.00    +0.112 C 
ATOM     15 Cl   UNL     1       5.803   0.886  -0.949  1.00  0.00    -0.127 Cl
ENDBRANCH  13  14
ENDBRANCH  12  13
ENDBRANCH   1  12
TORSDOF 5
