REMARK SMILES CC(C)NC[C@@H](O)COc1ccc(Cl)cc1
REMARK SMILES IDX 6 1 5 2 4 3 2 5 1 6 3 7 8 8 9 9 10 10 11 11 16 12 12 13
REMARK SMILES IDX 15 14 13 15 14 16 7 17
REMARK H PARENT 4 4 7 18
ROOT
ATOM      1  C   UNL     1      -0.000  -0.365   0.759  1.00  0.00    +0.165 C 
ENDROOT
BRANCH   1   2
ATOM      2  C   UNL     1      -1.228   0.531   0.493  1.00  0.00    +0.116 C 
BRANCH   2   3
ATOM      3  N   UNL     1      -2.354  -0.259  -0.043  1.00  0.00    -0.312 NA
ATOM      4  H   UNL     1      -2.095  -0.628  -0.960  1.00  0.00    +0.123 HD
BRANCH   3   5
ATOM      5  C   UNL     1      -3.582   0.539  -0.192  1.00  0.00    +0.047 C 
ATOM      6  C   UNL     1      -4.260   0.790   1.156  1.00  0.00    +0.024 C 
ATOM      7  C   UNL     1      -4.544  -0.218  -1.113  1.00  0.00    +0.024 C 
ENDBRANCH   3   5
ENDBRANCH   2   3
ENDBRANCH   1   2
BRANCH   1   8
ATOM      8  C   UNL     1       0.630  -0.900  -0.536  1.00  0.00    +0.262 C 
BRANCH   8   9
ATOM      9  O   UNL     1       1.913  -1.489  -0.296  1.00  0.00    -0.491 OA
BRANCH   9  10
ATOM     10  C   UNL     1       3.020  -0.689  -0.289  1.00  0.00    +0.119 A 
ATOM     11  C   UNL     1       4.223  -1.375  -0.093  1.00  0.00    +0.048 A 
ATOM     12  C   UNL     1       3.046   0.697  -0.448  1.00  0.00    +0.048 A 
ATOM     13  C   UNL     1       5.441  -0.692  -0.060  1.00  0.00    +0.024 A 
ATOM     14  C   UNL     1       4.264   1.386  -0.416  1.00  0.00    +0.024 A 
ATOM     15  C   UNL     1       5.455   0.690  -0.224  1.00  0.00    +0.041 A 
ATOM     16 Cl   UNL     1       6.949   1.543  -0.186  1.00  0.00    -0.084 Cl
ENDBRANCH   9  10
ENDBRANCH   8   9
ENDBRANCH   1   8
BRANCH   1  17
ATOM     17  O   UNL     1      -0.419  -1.463   1.588  1.00  0.00    -0.388 OA
ATOM     18  H   UNL     1      -1.341  -1.652   1.316  1.00  0.00    +0.211 HD
ENDBRANCH   1  17
TORSDOF 7
