REMARK SMILES O=C[C@@H](O)[C@@H](O)[C@H](O)CO
REMARK SMILES IDX 7 1 9 2 10 3 8 5 5 7 6 8 3 10 4 11 2 13 1 14
REMARK H PARENT 10 4 8 6 6 9 4 12
ROOT
ATOM      1  C   UNL     1      -0.915  -0.072  -0.272  1.00  0.00    +0.171 C 
ENDROOT
BRANCH   1   2
ATOM      2  C   UNL     1      -1.718  -1.138  -1.029  1.00  0.00    +0.190 C 
BRANCH   2   3
ATOM      3  O   UNL     1      -3.112  -0.902  -0.830  1.00  0.00    -0.394 OA
ATOM      4  H   UNL     1      -3.215  -0.796   0.137  1.00  0.00    +0.210 HD
ENDBRANCH   2   3
ENDBRANCH   1   2
BRANCH   1   5
ATOM      5  O   UNL     1      -1.276  -0.212   1.116  1.00  0.00    -0.388 OA
ATOM      6  H   UNL     1      -0.889   0.558   1.594  1.00  0.00    +0.211 HD
ENDBRANCH   1   5
BRANCH   1   7
ATOM      7  C   UNL     1       0.597  -0.290  -0.452  1.00  0.00    +0.181 C 
BRANCH   7   8
ATOM      8  O   UNL     1       1.077  -1.309   0.447  1.00  0.00    -0.387 OA
ATOM      9  H   UNL     1       0.405  -1.374   1.161  1.00  0.00    +0.211 HD
ENDBRANCH   7   8
BRANCH   7  10
ATOM     10  C   UNL     1       1.478   0.959  -0.291  1.00  0.00    +0.209 C 
BRANCH  10  11
ATOM     11  O   UNL     1       2.848   0.566  -0.450  1.00  0.00    -0.383 OA
ATOM     12  H   UNL     1       2.921  -0.309  -0.012  1.00  0.00    +0.211 HD
ENDBRANCH  10  11
BRANCH  10  13
ATOM     13  C   UNL     1       1.375   1.670   1.047  1.00  0.00    +0.258 C 
ATOM     14  O   UNL     1       0.406   1.603   1.800  1.00  0.00    -0.300 OA
ENDBRANCH  10  13
ENDBRANCH   7  10
ENDBRANCH   1   7
TORSDOF 8
