REMARK SMILES O=[N+]([O-])c1ccc(OC[C@@H]2CO2)cc1
REMARK SMILES IDX 4 1 5 2 6 3 7 4 13 5 14 6 2 7 1 8 3 9 8 10 9 11 10 12 11 13
REMARK SMILES IDX 12 14
REMARK H PARENT
ROOT
ATOM      1  C   UNL     1       3.018   0.129   0.018  1.00  0.00    +0.269 A 
ATOM      2  C   UNL     1       2.212  -0.680   0.829  1.00  0.00    +0.089 A 
ATOM      3  C   UNL     1       0.828  -0.709   0.625  1.00  0.00    +0.053 A 
ATOM      4  C   UNL     1       0.249   0.067  -0.383  1.00  0.00    +0.119 A 
ATOM      5  C   UNL     1       1.064   0.872  -1.187  1.00  0.00    +0.053 A 
ATOM      6  C   UNL     1       2.448   0.909  -0.994  1.00  0.00    +0.089 A 
ENDROOT
BRANCH   1   7
ATOM      7  N   UNL     1       4.471   0.160   0.231  1.00  0.00    +0.062 N 
ATOM      8  O   UNL     1       4.935  -0.547   1.137  1.00  0.00    -0.258 OA
ATOM      9  O   UNL     1       5.147   0.890  -0.507  1.00  0.00    -0.258 OA
ENDBRANCH   1   7
BRANCH   4  10
ATOM     10  O   UNL     1      -1.083   0.130  -0.685  1.00  0.00    -0.491 OA
BRANCH  10  11
ATOM     11  C   UNL     1      -1.970  -0.666   0.101  1.00  0.00    +0.264 C 
BRANCH  11  12
ATOM     12  C   UNL     1      -3.356  -0.454  -0.412  1.00  0.00    +0.181 C 
ATOM     13  C   UNL     1      -4.220   0.665   0.104  1.00  0.00    +0.196 C 
ATOM     14  O   UNL     1      -4.394  -0.690   0.547  1.00  0.00    -0.369 OA
ENDBRANCH  11  12
ENDBRANCH  10  11
ENDBRANCH   4  10
TORSDOF 4
