MODEL 1
REMARK VINA RESULT:    -7.622      0.000      0.000
REMARK INTER + INTRA:         -11.895
REMARK INTER:                 -11.186
REMARK INTRA:                  -0.709
REMARK UNBOUND:                -0.709
REMARK SMILES CCOC(=O)C(NC(=O)c1ccccc1)C(=O)OCC
REMARK SMILES IDX 6 1 4 2 5 3 3 4 2 5 1 6 7 7 8 8 9 9 10 11 11 12 15 13 12 14
REMARK SMILES IDX 14 15 13 16 16 17 17 18 18 19 19 20 20 21
REMARK H PARENT 7 10
ROOT
ATOM      1  C   UNL     1     -27.479   9.357   6.645  1.00  0.00    +0.303 C 
ENDROOT
BRANCH   1   2
ATOM      2  C   UNL     1     -27.048   9.914   5.292  1.00  0.00    +0.340 C 
ATOM      3  O   UNL     1     -26.803   9.218   4.312  1.00  0.00    -0.249 OA
BRANCH   2   4
ATOM      4  O   UNL     1     -26.971  11.277   5.294  1.00  0.00    -0.464 OA
BRANCH   4   5
ATOM      5  C   UNL     1     -28.225  11.948   5.461  1.00  0.00    +0.229 C 
ATOM      6  C   UNL     1     -27.997  13.432   5.251  1.00  0.00    +0.049 C 
ENDBRANCH   4   5
ENDBRANCH   2   4
ENDBRANCH   1   2
BRANCH   1   7
ATOM      7  N   UNL     1     -28.652   8.472   6.577  1.00  0.00    -0.330 N 
ATOM      8  C   UNL     1     -29.902   8.917   6.931  1.00  0.00    +0.252 C 
ATOM      9  O   UNL     1     -30.094  10.025   7.416  1.00  0.00    -0.269 OA
ATOM     10  H   UNL     1     -28.505   7.543   6.199  1.00  0.00    +0.165 HD
BRANCH   8  11
ATOM     11  C   UNL     1     -31.035   7.975   6.720  1.00  0.00    +0.039 A 
ATOM     12  C   UNL     1     -31.737   7.909   5.510  1.00  0.00    +0.014 A 
ATOM     13  C   UNL     1     -31.419   7.153   7.789  1.00  0.00    +0.014 A 
ATOM     14  C   UNL     1     -32.796   7.009   5.365  1.00  0.00    +0.001 A 
ATOM     15  C   UNL     1     -32.477   6.255   7.639  1.00  0.00    +0.001 A 
ATOM     16  C   UNL     1     -33.161   6.182   6.427  1.00  0.00    +0.000 A 
ENDBRANCH   8  11
ENDBRANCH   1   7
BRANCH   1  17
ATOM     17  C   UNL     1     -26.337   8.566   7.252  1.00  0.00    +0.340 C 
ATOM     18  O   UNL     1     -25.187   8.988   7.344  1.00  0.00    -0.249 OA
BRANCH  17  19
ATOM     19  O   UNL     1     -26.756   7.342   7.676  1.00  0.00    -0.464 OA
BRANCH  19  20
ATOM     20  C   UNL     1     -25.942   6.249   7.231  1.00  0.00    +0.229 C 
ATOM     21  C   UNL     1     -25.376   5.552   8.454  1.00  0.00    +0.049 C 
ENDBRANCH  19  20
ENDBRANCH  17  19
ENDBRANCH   1  17
TORSDOF 8
ENDMDL
MODEL 2
REMARK VINA RESULT:    -7.340      4.712      8.170
REMARK INTER + INTRA:         -11.482
REMARK INTER:                 -10.709
REMARK INTRA:                  -0.773
REMARK UNBOUND:                -0.709
REMARK SMILES CCOC(=O)C(NC(=O)c1ccccc1)C(=O)OCC
REMARK SMILES IDX 6 1 4 2 5 3 3 4 2 5 1 6 7 7 8 8 9 9 10 11 11 12 15 13 12 14
REMARK SMILES IDX 14 15 13 16 16 17 17 18 18 19 19 20 20 21
REMARK H PARENT 7 10
ROOT
ATOM      1  C   UNL     1     -26.425   2.615  10.103  1.00  0.00    +0.303 C 
ENDROOT
BRANCH   1   2
ATOM      2  C   UNL     1     -26.074   2.770  11.580  1.00  0.00    +0.340 C 
ATOM      3  O   UNL     1     -25.403   3.693  12.031  1.00  0.00    -0.249 OA
BRANCH   2   4
ATOM      4  O   UNL     1     -26.596   1.766  12.343  1.00  0.00    -0.464 OA
BRANCH   4   5
ATOM      5  C   UNL     1     -28.024   1.667  12.308  1.00  0.00    +0.229 C 
ATOM      6  C   UNL     1     -28.532   1.684  13.737  1.00  0.00    +0.049 C 
ENDBRANCH   4   5
ENDBRANCH   2   4
ENDBRANCH   1   2
BRANCH   1   7
ATOM      7  N   UNL     1     -26.119   3.804   9.292  1.00  0.00    -0.330 N 
ATOM      8  C   UNL     1     -27.119   4.611   8.807  1.00  0.00    +0.252 C 
ATOM      9  O   UNL     1     -28.307   4.336   8.929  1.00  0.00    -0.269 OA
ATOM     10  H   UNL     1     -25.141   4.033   9.162  1.00  0.00    +0.165 HD
BRANCH   8  11
ATOM     11  C   UNL     1     -26.697   5.847   8.093  1.00  0.00    +0.039 A 
ATOM     12  C   UNL     1     -25.399   6.016   7.595  1.00  0.00    +0.014 A 
ATOM     13  C   UNL     1     -27.635   6.879   7.948  1.00  0.00    +0.014 A 
ATOM     14  C   UNL     1     -25.054   7.198   6.934  1.00  0.00    +0.001 A 
ATOM     15  C   UNL     1     -27.284   8.057   7.287  1.00  0.00    +0.001 A 
ATOM     16  C   UNL     1     -25.996   8.214   6.778  1.00  0.00    +0.000 A 
ENDBRANCH   8  11
ENDBRANCH   1   7
BRANCH   1  17
ATOM     17  C   UNL     1     -25.652   1.448   9.520  1.00  0.00    +0.340 C 
ATOM     18  O   UNL     1     -26.174   0.395   9.162  1.00  0.00    -0.249 OA
BRANCH  17  19
ATOM     19  O   UNL     1     -24.322   1.723   9.448  1.00  0.00    -0.464 OA
BRANCH  19  20
ATOM     20  C   UNL     1     -23.479   0.758  10.090  1.00  0.00    +0.229 C 
ATOM     21  C   UNL     1     -22.359   1.500  10.793  1.00  0.00    +0.049 C 
ENDBRANCH  19  20
ENDBRANCH  17  19
ENDBRANCH   1  17
TORSDOF 8
ENDMDL
MODEL 3
REMARK VINA RESULT:    -7.104      6.145      9.159
REMARK INTER + INTRA:         -11.136
REMARK INTER:                 -10.200
REMARK INTRA:                  -0.936
REMARK UNBOUND:                -0.709
REMARK SMILES CCOC(=O)C(NC(=O)c1ccccc1)C(=O)OCC
REMARK SMILES IDX 6 1 4 2 5 3 3 4 2 5 1 6 7 7 8 8 9 9 10 11 11 12 15 13 12 14
REMARK SMILES IDX 14 15 13 16 16 17 17 18 18 19 19 20 20 21
REMARK H PARENT 7 10
ROOT
ATOM      1  C   UNL     1     -35.362   4.957  10.145  1.00  0.00    +0.303 C 
ENDROOT
BRANCH   1   2
ATOM      2  C   UNL     1     -36.604   5.682  10.654  1.00  0.00    +0.340 C 
ATOM      3  O   UNL     1     -36.864   6.854  10.402  1.00  0.00    -0.249 OA
BRANCH   2   4
ATOM      4  O   UNL     1     -37.398   4.875  11.417  1.00  0.00    -0.464 OA
BRANCH   4   5
ATOM      5  C   UNL     1     -38.465   4.237  10.705  1.00  0.00    +0.229 C 
ATOM      6  C   UNL     1     -38.495   2.777  11.113  1.00  0.00    +0.049 C 
ENDBRANCH   4   5
ENDBRANCH   2   4
ENDBRANCH   1   2
BRANCH   1   7
ATOM      7  N   UNL     1     -34.619   5.701   9.115  1.00  0.00    -0.330 N 
ATOM      8  C   UNL     1     -34.176   5.083   7.972  1.00  0.00    +0.252 C 
ATOM      9  O   UNL     1     -34.277   3.875   7.793  1.00  0.00    -0.269 OA
ATOM     10  H   UNL     1     -34.507   6.697   9.260  1.00  0.00    +0.165 HD
BRANCH   8  11
ATOM     11  C   UNL     1     -33.534   5.950   6.947  1.00  0.00    +0.039 A 
ATOM     12  C   UNL     1     -33.995   6.012   5.626  1.00  0.00    +0.014 A 
ATOM     13  C   UNL     1     -32.412   6.701   7.325  1.00  0.00    +0.014 A 
ATOM     14  C   UNL     1     -33.353   6.840   4.701  1.00  0.00    +0.001 A 
ATOM     15  C   UNL     1     -31.775   7.526   6.397  1.00  0.00    +0.001 A 
ATOM     16  C   UNL     1     -32.248   7.598   5.088  1.00  0.00    +0.000 A 
ENDBRANCH   8  11
ENDBRANCH   1   7
BRANCH   1  17
ATOM     17  C   UNL     1     -34.417   4.703  11.303  1.00  0.00    +0.340 C 
ATOM     18  O   UNL     1     -34.190   5.521  12.192  1.00  0.00    -0.249 OA
BRANCH  17  19
ATOM     19  O   UNL     1     -33.863   3.462  11.225  1.00  0.00    -0.464 OA
BRANCH  19  20
ATOM     20  C   UNL     1     -34.800   2.410  10.963  1.00  0.00    +0.229 C 
ATOM     21  C   UNL     1     -34.036   1.225  10.402  1.00  0.00    +0.049 C 
ENDBRANCH  19  20
ENDBRANCH  17  19
ENDBRANCH   1  17
TORSDOF 8
ENDMDL
MODEL 4
REMARK VINA RESULT:    -7.004      6.096      8.137
REMARK INTER + INTRA:         -10.988
REMARK INTER:                 -10.487
REMARK INTRA:                  -0.502
REMARK UNBOUND:                -0.709
REMARK SMILES CCOC(=O)C(NC(=O)c1ccccc1)C(=O)OCC
REMARK SMILES IDX 6 1 4 2 5 3 3 4 2 5 1 6 7 7 8 8 9 9 10 11 11 12 15 13 12 14
REMARK SMILES IDX 14 15 13 16 16 17 17 18 18 19 19 20 20 21
REMARK H PARENT 7 10
ROOT
ATOM      1  C   UNL     1     -26.712   2.336  10.248  1.00  0.00    +0.303 C 
ENDROOT
BRANCH   1   2
ATOM      2  C   UNL     1     -26.905   3.539   9.330  1.00  0.00    +0.340 C 
ATOM      3  O   UNL     1     -27.976   4.118   9.179  1.00  0.00    -0.249 OA
BRANCH   2   4
ATOM      4  O   UNL     1     -25.749   3.901   8.701  1.00  0.00    -0.464 OA
BRANCH   4   5
ATOM      5  C   UNL     1     -25.448   5.300   8.759  1.00  0.00    +0.229 C 
ATOM      6  C   UNL     1     -25.466   5.845   7.344  1.00  0.00    +0.049 C 
ENDBRANCH   4   5
ENDBRANCH   2   4
ENDBRANCH   1   2
BRANCH   1   7
ATOM      7  N   UNL     1     -27.834   1.385  10.228  1.00  0.00    -0.330 N 
ATOM      8  C   UNL     1     -28.704   1.288  11.286  1.00  0.00    +0.252 C 
ATOM      9  O   UNL     1     -28.538   1.899  12.334  1.00  0.00    -0.269 OA
ATOM     10  H   UNL     1     -27.971   0.855   9.376  1.00  0.00    +0.165 HD
BRANCH   8  11
ATOM     11  C   UNL     1     -29.867   0.375  11.117  1.00  0.00    +0.039 A 
ATOM     12  C   UNL     1     -30.159  -0.245   9.895  1.00  0.00    +0.014 A 
ATOM     13  C   UNL     1     -30.706   0.161  12.219  1.00  0.00    +0.014 A 
ATOM     14  C   UNL     1     -31.266  -1.091   9.789  1.00  0.00    +0.001 A 
ATOM     15  C   UNL     1     -31.810  -0.685  12.108  1.00  0.00    +0.001 A 
ATOM     16  C   UNL     1     -32.087  -1.313  10.895  1.00  0.00    +0.000 A 
ENDBRANCH   8  11
ENDBRANCH   1   7
BRANCH   1  17
ATOM     17  C   UNL     1     -25.461   1.583   9.836  1.00  0.00    +0.340 C 
ATOM     18  O   UNL     1     -25.382   0.895   8.822  1.00  0.00    -0.249 OA
BRANCH  17  19
ATOM     19  O   UNL     1     -24.453   1.774  10.730  1.00  0.00    -0.464 OA
BRANCH  19  20
ATOM     20  C   UNL     1     -23.441   0.759  10.709  1.00  0.00    +0.229 C 
ATOM     21  C   UNL     1     -22.095   1.436  10.531  1.00  0.00    +0.049 C 
ENDBRANCH  19  20
ENDBRANCH  17  19
ENDBRANCH   1  17
TORSDOF 8
ENDMDL
MODEL 5
REMARK VINA RESULT:    -6.911      6.157      9.059
REMARK INTER + INTRA:         -10.852
REMARK INTER:                 -10.328
REMARK INTRA:                  -0.524
REMARK UNBOUND:                -0.709
REMARK SMILES CCOC(=O)C(NC(=O)c1ccccc1)C(=O)OCC
REMARK SMILES IDX 6 1 4 2 5 3 3 4 2 5 1 6 7 7 8 8 9 9 10 11 11 12 15 13 12 14
REMARK SMILES IDX 14 15 13 16 16 17 17 18 18 19 19 20 20 21
REMARK H PARENT 7 10
ROOT
ATOM      1  C   UNL     1     -26.464   2.502   9.850  1.00  0.00    +0.303 C 
ENDROOT
BRANCH   1   2
ATOM      2  C   UNL     1     -25.453   1.396   9.564  1.00  0.00    +0.340 C 
ATOM      3  O   UNL     1     -25.735   0.339   9.008  1.00  0.00    -0.249 OA
BRANCH   2   4
ATOM      4  O   UNL     1     -24.198   1.718   9.993  1.00  0.00    -0.464 OA
BRANCH   4   5
ATOM      5  C   UNL     1     -23.251   0.645   9.936  1.00  0.00    +0.229 C 
ATOM      6  C   UNL     1     -21.994   1.088  10.658  1.00  0.00    +0.049 C 
ENDBRANCH   4   5
ENDBRANCH   2   4
ENDBRANCH   1   2
BRANCH   1   7
ATOM      7  N   UNL     1     -27.229   2.303  11.091  1.00  0.00    -0.330 N 
ATOM      8  C   UNL     1     -28.399   1.584  11.098  1.00  0.00    +0.252 C 
ATOM      9  O   UNL     1     -28.922   1.165  10.073  1.00  0.00    -0.269 OA
ATOM     10  H   UNL     1     -26.822   2.664  11.945  1.00  0.00    +0.165 HD
BRANCH   8  11
ATOM     11  C   UNL     1     -29.035   1.349  12.423  1.00  0.00    +0.039 A 
ATOM     12  C   UNL     1     -28.372   1.617  13.628  1.00  0.00    +0.014 A 
ATOM     13  C   UNL     1     -30.330   0.814  12.450  1.00  0.00    +0.014 A 
ATOM     14  C   UNL     1     -29.013   1.376  14.846  1.00  0.00    +0.001 A 
ATOM     15  C   UNL     1     -30.966   0.575  13.669  1.00  0.00    +0.001 A 
ATOM     16  C   UNL     1     -30.309   0.859  14.865  1.00  0.00    +0.000 A 
ENDBRANCH   8  11
ENDBRANCH   1   7
BRANCH   1  17
ATOM     17  C   UNL     1     -25.740   3.830   9.962  1.00  0.00    +0.340 C 
ATOM     18  O   UNL     1     -25.469   4.372  11.031  1.00  0.00    -0.249 OA
BRANCH  17  19
ATOM     19  O   UNL     1     -25.435   4.331   8.734  1.00  0.00    -0.464 OA
BRANCH  19  20
ATOM     20  C   UNL     1     -26.230   5.455   8.337  1.00  0.00    +0.229 C 
ATOM     21  C   UNL     1     -25.464   6.228   7.281  1.00  0.00    +0.049 C 
ENDBRANCH  19  20
ENDBRANCH  17  19
ENDBRANCH   1  17
TORSDOF 8
ENDMDL
MODEL 6
REMARK VINA RESULT:    -6.886      1.811      5.224
REMARK INTER + INTRA:         -10.816
REMARK INTER:                 -10.260
REMARK INTRA:                  -0.555
REMARK UNBOUND:                -0.709
REMARK SMILES CCOC(=O)C(NC(=O)c1ccccc1)C(=O)OCC
REMARK SMILES IDX 6 1 4 2 5 3 3 4 2 5 1 6 7 7 8 8 9 9 10 11 11 12 15 13 12 14
REMARK SMILES IDX 14 15 13 16 16 17 17 18 18 19 19 20 20 21
REMARK H PARENT 7 10
ROOT
ATOM      1  C   UNL     1     -27.177   8.235   6.648  1.00  0.00    +0.303 C 
ENDROOT
BRANCH   1   2
ATOM      2  C   UNL     1     -25.963   9.159   6.679  1.00  0.00    +0.340 C 
ATOM      3  O   UNL     1     -25.208   9.263   7.640  1.00  0.00    -0.249 OA
BRANCH   2   4
ATOM      4  O   UNL     1     -25.811   9.851   5.512  1.00  0.00    -0.464 OA
BRANCH   4   5
ATOM      5  C   UNL     1     -25.672  11.268   5.671  1.00  0.00    +0.229 C 
ATOM      6  C   UNL     1     -26.887  11.931   5.052  1.00  0.00    +0.049 C 
ENDBRANCH   4   5
ENDBRANCH   2   4
ENDBRANCH   1   2
BRANCH   1   7
ATOM      7  N   UNL     1     -27.128   7.155   7.646  1.00  0.00    -0.330 N 
ATOM      8  C   UNL     1     -26.222   6.128   7.540  1.00  0.00    +0.252 C 
ATOM      9  O   UNL     1     -25.486   5.995   6.570  1.00  0.00    -0.269 OA
ATOM     10  H   UNL     1     -27.748   7.238   8.443  1.00  0.00    +0.165 HD
BRANCH   8  11
ATOM     11  C   UNL     1     -26.184   5.149   8.660  1.00  0.00    +0.039 A 
ATOM     12  C   UNL     1     -25.065   5.008   9.491  1.00  0.00    +0.014 A 
ATOM     13  C   UNL     1     -27.302   4.327   8.859  1.00  0.00    +0.014 A 
ATOM     14  C   UNL     1     -25.080   4.070  10.528  1.00  0.00    +0.001 A 
ATOM     15  C   UNL     1     -27.311   3.393   9.896  1.00  0.00    +0.001 A 
ATOM     16  C   UNL     1     -26.202   3.268  10.731  1.00  0.00    +0.000 A 
ENDBRANCH   8  11
ENDBRANCH   1   7
BRANCH   1  17
ATOM     17  C   UNL     1     -28.434   9.044   6.904  1.00  0.00    +0.340 C 
ATOM     18  O   UNL     1     -28.456  10.080   7.563  1.00  0.00    -0.249 OA
BRANCH  17  19
ATOM     19  O   UNL     1     -29.517   8.474   6.309  1.00  0.00    -0.464 OA
BRANCH  19  20
ATOM     20  C   UNL     1     -30.660   8.338   7.164  1.00  0.00    +0.229 C 
ATOM     21  C   UNL     1     -31.882   8.129   6.290  1.00  0.00    +0.049 C 
ENDBRANCH  19  20
ENDBRANCH  17  19
ENDBRANCH   1  17
TORSDOF 8
ENDMDL
MODEL 7
REMARK VINA RESULT:    -6.646      6.894      9.424
REMARK INTER + INTRA:         -10.463
REMARK INTER:                  -9.673
REMARK INTRA:                  -0.790
REMARK UNBOUND:                -0.709
REMARK SMILES CCOC(=O)C(NC(=O)c1ccccc1)C(=O)OCC
REMARK SMILES IDX 6 1 4 2 5 3 3 4 2 5 1 6 7 7 8 8 9 9 10 11 11 12 15 13 12 14
REMARK SMILES IDX 14 15 13 16 16 17 17 18 18 19 19 20 20 21
REMARK H PARENT 7 10
ROOT
ATOM      1  C   UNL     1     -25.164   2.157  10.947  1.00  0.00    +0.303 C 
ENDROOT
BRANCH   1   2
ATOM      2  C   UNL     1     -25.602   2.015   9.492  1.00  0.00    +0.340 C 
ATOM      3  O   UNL     1     -25.515   0.973   8.850  1.00  0.00    -0.249 OA
BRANCH   2   4
ATOM      4  O   UNL     1     -26.108   3.179   8.988  1.00  0.00    -0.464 OA
BRANCH   4   5
ATOM      5  C   UNL     1     -25.406   4.361   9.392  1.00  0.00    +0.229 C 
ATOM      6  C   UNL     1     -25.721   5.458   8.393  1.00  0.00    +0.049 C 
ENDBRANCH   4   5
ENDBRANCH   2   4
ENDBRANCH   1   2
BRANCH   1   7
ATOM      7  N   UNL     1     -26.002   1.407  11.896  1.00  0.00    -0.330 N 
ATOM      8  C   UNL     1     -27.136   1.962  12.437  1.00  0.00    +0.252 C 
ATOM      9  O   UNL     1     -27.454   3.130  12.247  1.00  0.00    -0.269 OA
ATOM     10  H   UNL     1     -25.739   0.447  12.081  1.00  0.00    +0.165 HD
BRANCH   8  11
ATOM     11  C   UNL     1     -27.969   1.080  13.299  1.00  0.00    +0.039 A 
ATOM     12  C   UNL     1     -28.832   1.590  14.277  1.00  0.00    +0.014 A 
ATOM     13  C   UNL     1     -27.853  -0.307  13.133  1.00  0.00    +0.014 A 
ATOM     14  C   UNL     1     -29.590   0.717  15.062  1.00  0.00    +0.001 A 
ATOM     15  C   UNL     1     -28.613  -1.174  13.920  1.00  0.00    +0.001 A 
ATOM     16  C   UNL     1     -29.482  -0.661  14.880  1.00  0.00    +0.000 A 
ENDBRANCH   8  11
ENDBRANCH   1   7
BRANCH   1  17
ATOM     17  C   UNL     1     -23.739   1.660  11.095  1.00  0.00    +0.340 C 
ATOM     18  O   UNL     1     -22.751   2.381  10.996  1.00  0.00    -0.249 OA
BRANCH  17  19
ATOM     19  O   UNL     1     -23.707   0.323  11.352  1.00  0.00    -0.464 OA
BRANCH  19  20
ATOM     20  C   UNL     1     -22.509  -0.335  10.922  1.00  0.00    +0.229 C 
ATOM     21  C   UNL     1     -22.901  -1.514  10.053  1.00  0.00    +0.049 C 
ENDBRANCH  19  20
ENDBRANCH  17  19
ENDBRANCH   1  17
TORSDOF 8
ENDMDL
MODEL 8
REMARK VINA RESULT:    -6.581      5.846      7.943
REMARK INTER + INTRA:         -10.367
REMARK INTER:                  -9.532
REMARK INTRA:                  -0.836
REMARK UNBOUND:                -0.709
REMARK SMILES CCOC(=O)C(NC(=O)c1ccccc1)C(=O)OCC
REMARK SMILES IDX 6 1 4 2 5 3 3 4 2 5 1 6 7 7 8 8 9 9 10 11 11 12 15 13 12 14
REMARK SMILES IDX 14 15 13 16 16 17 17 18 18 19 19 20 20 21
REMARK H PARENT 7 10
ROOT
ATOM      1  C   UNL     1     -25.623   2.705  10.741  1.00  0.00    +0.303 C 
ENDROOT
BRANCH   1   2
ATOM      2  C   UNL     1     -25.242   3.916   9.895  1.00  0.00    +0.340 C 
ATOM      3  O   UNL     1     -24.415   4.757  10.237  1.00  0.00    -0.249 OA
BRANCH   2   4
ATOM      4  O   UNL     1     -25.922   3.956   8.712  1.00  0.00    -0.464 OA
BRANCH   4   5
ATOM      5  C   UNL     1     -26.468   5.238   8.377  1.00  0.00    +0.229 C 
ATOM      6  C   UNL     1     -25.615   5.838   7.276  1.00  0.00    +0.049 C 
ENDBRANCH   4   5
ENDBRANCH   2   4
ENDBRANCH   1   2
BRANCH   1   7
ATOM      7  N   UNL     1     -26.870   2.050  10.314  1.00  0.00    -0.330 N 
ATOM      8  C   UNL     1     -27.840   1.707  11.223  1.00  0.00    +0.252 C 
ATOM      9  O   UNL     1     -27.684   1.827  12.432  1.00  0.00    -0.269 OA
ATOM     10  H   UNL     1     -27.004   1.923   9.319  1.00  0.00    +0.165 HD
BRANCH   8  11
ATOM     11  C   UNL     1     -29.107   1.151  10.675  1.00  0.00    +0.039 A 
ATOM     12  C   UNL     1     -30.247   1.942  10.478  1.00  0.00    +0.014 A 
ATOM     13  C   UNL     1     -29.154  -0.217  10.377  1.00  0.00    +0.014 A 
ATOM     14  C   UNL     1     -31.413   1.369   9.963  1.00  0.00    +0.001 A 
ATOM     15  C   UNL     1     -30.321  -0.784   9.862  1.00  0.00    +0.001 A 
ATOM     16  C   UNL     1     -31.447   0.010   9.652  1.00  0.00    +0.000 A 
ENDBRANCH   8  11
ENDBRANCH   1   7
BRANCH   1  17
ATOM     17  C   UNL     1     -24.513   1.674  10.673  1.00  0.00    +0.340 C 
ATOM     18  O   UNL     1     -23.523   1.689  11.399  1.00  0.00    -0.249 OA
BRANCH  17  19
ATOM     19  O   UNL     1     -24.764   0.742   9.713  1.00  0.00    -0.464 OA
BRANCH  19  20
ATOM     20  C   UNL     1     -24.558  -0.613  10.133  1.00  0.00    +0.229 C 
ATOM     21  C   UNL     1     -25.759  -1.431   9.699  1.00  0.00    +0.049 C 
ENDBRANCH  19  20
ENDBRANCH  17  19
ENDBRANCH   1  17
TORSDOF 8
ENDMDL
MODEL 9
REMARK VINA RESULT:    -6.569      1.705      5.448
REMARK INTER + INTRA:         -10.350
REMARK INTER:                  -9.870
REMARK INTRA:                  -0.481
REMARK UNBOUND:                -0.709
REMARK SMILES CCOC(=O)C(NC(=O)c1ccccc1)C(=O)OCC
REMARK SMILES IDX 6 1 4 2 5 3 3 4 2 5 1 6 7 7 8 8 9 9 10 11 11 12 15 13 12 14
REMARK SMILES IDX 14 15 13 16 16 17 17 18 18 19 19 20 20 21
REMARK H PARENT 7 10
ROOT
ATOM      1  C   UNL     1     -30.421   9.363   6.649  1.00  0.00    +0.303 C 
ENDROOT
BRANCH   1   2
ATOM      2  C   UNL     1     -30.503  10.678   7.418  1.00  0.00    +0.340 C 
ATOM      3  O   UNL     1     -31.408  10.959   8.198  1.00  0.00    -0.249 OA
BRANCH   2   4
ATOM      4  O   UNL     1     -29.451  11.504   7.144  1.00  0.00    -0.464 OA
BRANCH   4   5
ATOM      5  C   UNL     1     -29.600  12.289   5.955  1.00  0.00    +0.229 C 
ATOM      6  C   UNL     1     -28.215  12.660   5.461  1.00  0.00    +0.049 C 
ENDBRANCH   4   5
ENDBRANCH   2   4
ENDBRANCH   1   2
BRANCH   1   7
ATOM      7  N   UNL     1     -29.378   8.450   7.142  1.00  0.00    -0.330 N 
ATOM      8  C   UNL     1     -28.137   8.403   6.556  1.00  0.00    +0.252 C 
ATOM      9  O   UNL     1     -27.864   9.031   5.540  1.00  0.00    -0.269 OA
ATOM     10  H   UNL     1     -29.597   7.906   7.969  1.00  0.00    +0.165 HD
BRANCH   8  11
ATOM     11  C   UNL     1     -27.122   7.526   7.201  1.00  0.00    +0.039 A 
ATOM     12  C   UNL     1     -27.477   6.487   8.070  1.00  0.00    +0.014 A 
ATOM     13  C   UNL     1     -25.769   7.781   6.942  1.00  0.00    +0.014 A 
ATOM     14  C   UNL     1     -26.484   5.694   8.652  1.00  0.00    +0.001 A 
ATOM     15  C   UNL     1     -24.781   6.986   7.526  1.00  0.00    +0.001 A 
ATOM     16  C   UNL     1     -25.140   5.942   8.377  1.00  0.00    +0.000 A 
ENDBRANCH   8  11
ENDBRANCH   1   7
BRANCH   1  17
ATOM     17  C   UNL     1     -31.751   8.640   6.744  1.00  0.00    +0.340 C 
ATOM     18  O   UNL     1     -32.258   8.280   7.803  1.00  0.00    -0.249 OA
BRANCH  17  19
ATOM     19  O   UNL     1     -32.297   8.449   5.512  1.00  0.00    -0.464 OA
BRANCH  19  20
ATOM     20  C   UNL     1     -32.313   7.085   5.074  1.00  0.00    +0.229 C 
ATOM     21  C   UNL     1     -33.757   6.634   4.978  1.00  0.00    +0.049 C 
ENDBRANCH  19  20
ENDBRANCH  17  19
ENDBRANCH   1  17
TORSDOF 8
ENDMDL
