MODEL 1
REMARK VINA RESULT:    -5.710      0.000      0.000
REMARK INTER + INTRA:          -9.725
REMARK INTER:                  -8.714
REMARK INTRA:                  -1.011
REMARK UNBOUND:                -1.011
REMARK SMILES O=C[C@H](O)[C@H](O)[C@@H](O)[C@@H](O)[C@H](O)CO
REMARK SMILES IDX 9 1 11 2 13 3 14 4 12 6 10 8 7 10 8 11 5 13 6 14 3 16 4 17
REMARK SMILES IDX 2 19 1 20
REMARK H PARENT 14 5 12 7 10 9 8 12 6 15 4 18
ROOT
ATOM      1  C   UNL     1     -25.784   2.360  10.104  1.00  0.00    +0.176 C 
ENDROOT
BRANCH   1   2
ATOM      2  C   UNL     1     -24.523   1.894  10.844  1.00  0.00    +0.171 C 
BRANCH   2   3
ATOM      3  C   UNL     1     -23.755   0.791  10.118  1.00  0.00    +0.190 C 
BRANCH   3   4
ATOM      4  O   UNL     1     -23.102   1.351   8.979  1.00  0.00    -0.394 OA
ATOM      5  H   UNL     1     -23.709   1.174   8.230  1.00  0.00    +0.210 HD
ENDBRANCH   3   4
ENDBRANCH   2   3
BRANCH   2   6
ATOM      6  O   UNL     1     -23.631   3.021  10.987  1.00  0.00    -0.388 OA
ATOM      7  H   UNL     1     -23.999   3.718  10.405  1.00  0.00    +0.211 HD
ENDBRANCH   2   6
ENDBRANCH   1   2
BRANCH   1   8
ATOM      8  O   UNL     1     -25.920   1.557   8.907  1.00  0.00    -0.388 OA
ATOM      9  H   UNL     1     -26.205   0.665   9.209  1.00  0.00    +0.211 HD
ENDBRANCH   1   8
BRANCH   1  10
ATOM     10  C   UNL     1     -25.830   3.860   9.730  1.00  0.00    +0.177 C 
BRANCH  10  11
ATOM     11  O   UNL     1     -26.194   4.589  10.913  1.00  0.00    -0.387 OA
ATOM     12  H   UNL     1     -27.173   4.573  10.953  1.00  0.00    +0.211 HD
ENDBRANCH  10  11
BRANCH  10  13
ATOM     13  C   UNL     1     -26.823   4.191   8.584  1.00  0.00    +0.181 C 
BRANCH  13  14
ATOM     14  O   UNL     1     -28.168   3.948   9.060  1.00  0.00    -0.387 OA
ATOM     15  H   UNL     1     -28.361   3.027   8.768  1.00  0.00    +0.211 HD
ENDBRANCH  13  14
BRANCH  13  16
ATOM     16  C   UNL     1     -26.771   5.638   8.051  1.00  0.00    +0.209 C 
BRANCH  16  17
ATOM     17  O   UNL     1     -27.429   6.502   8.982  1.00  0.00    -0.383 OA
ATOM     18  H   UNL     1     -27.340   6.112   9.870  1.00  0.00    +0.211 HD
ENDBRANCH  16  17
BRANCH  16  19
ATOM     19  C   UNL     1     -25.351   6.072   7.726  1.00  0.00    +0.258 C 
ATOM     20  O   UNL     1     -24.915   7.197   7.961  1.00  0.00    -0.300 OA
ENDBRANCH  16  19
ENDBRANCH  13  16
ENDBRANCH  10  13
ENDBRANCH   1  10
TORSDOF 12
ENDMDL
MODEL 2
REMARK VINA RESULT:    -5.608     13.350     14.766
REMARK INTER + INTRA:          -9.569
REMARK INTER:                  -8.848
REMARK INTRA:                  -0.721
REMARK UNBOUND:                -1.011
REMARK SMILES O=C[C@H](O)[C@H](O)[C@@H](O)[C@@H](O)[C@H](O)CO
REMARK SMILES IDX 9 1 11 2 13 3 14 4 12 6 10 8 7 10 8 11 5 13 6 14 3 16 4 17
REMARK SMILES IDX 2 19 1 20
REMARK H PARENT 14 5 12 7 10 9 8 12 6 15 4 18
ROOT
ATOM      1  C   UNL     1     -34.245  -2.042   0.244  1.00  0.00    +0.176 C 
ENDROOT
BRANCH   1   2
ATOM      2  C   UNL     1     -33.242  -1.725   1.361  1.00  0.00    +0.171 C 
BRANCH   2   3
ATOM      3  C   UNL     1     -33.041  -0.229   1.602  1.00  0.00    +0.190 C 
BRANCH   3   4
ATOM      4  O   UNL     1     -33.095   0.455   0.350  1.00  0.00    -0.394 OA
ATOM      5  H   UNL     1     -33.867   1.054   0.424  1.00  0.00    +0.210 HD
ENDBRANCH   3   4
ENDBRANCH   2   3
BRANCH   2   6
ATOM      6  O   UNL     1     -33.729  -2.300   2.594  1.00  0.00    -0.388 OA
ATOM      7  H   UNL     1     -34.605  -2.680   2.374  1.00  0.00    +0.211 HD
ENDBRANCH   2   6
ENDBRANCH   1   2
BRANCH   1   8
ATOM      8  O   UNL     1     -35.057  -3.159   0.678  1.00  0.00    -0.388 OA
ATOM      9  H   UNL     1     -34.585  -3.970   0.382  1.00  0.00    +0.211 HD
ENDBRANCH   1   8
BRANCH   1  10
ATOM     10  C   UNL     1     -33.633  -2.354  -1.142  1.00  0.00    +0.177 C 
BRANCH  10  11
ATOM     11  O   UNL     1     -32.316  -1.782  -1.170  1.00  0.00    -0.387 OA
ATOM     12  H   UNL     1     -31.931  -1.938  -0.283  1.00  0.00    +0.211 HD
ENDBRANCH  10  11
BRANCH  10  13
ATOM     13  C   UNL     1     -34.467  -1.810  -2.333  1.00  0.00    +0.181 C 
BRANCH  13  14
ATOM     14  O   UNL     1     -34.641  -0.384  -2.155  1.00  0.00    -0.387 OA
ATOM     15  H   UNL     1     -33.820  -0.101  -1.691  1.00  0.00    +0.211 HD
ENDBRANCH  13  14
BRANCH  13  16
ATOM     16  C   UNL     1     -33.857  -2.035  -3.733  1.00  0.00    +0.209 C 
BRANCH  16  17
ATOM     17  O   UNL     1     -32.613  -1.334  -3.817  1.00  0.00    -0.383 OA
ATOM     18  H   UNL     1     -32.754  -0.428  -3.490  1.00  0.00    +0.211 HD
ENDBRANCH  16  17
BRANCH  16  19
ATOM     19  C   UNL     1     -33.742  -3.513  -4.070  1.00  0.00    +0.258 C 
ATOM     20  O   UNL     1     -32.681  -4.133  -4.045  1.00  0.00    -0.300 OA
ENDBRANCH  16  19
ENDBRANCH  13  16
ENDBRANCH  10  13
ENDBRANCH   1  10
TORSDOF 12
ENDMDL
MODEL 3
REMARK VINA RESULT:    -5.372      2.447      3.777
REMARK INTER + INTRA:          -9.209
REMARK INTER:                  -7.629
REMARK INTRA:                  -1.580
REMARK UNBOUND:                -1.011
REMARK SMILES O=C[C@H](O)[C@H](O)[C@@H](O)[C@@H](O)[C@H](O)CO
REMARK SMILES IDX 9 1 11 2 13 3 14 4 12 6 10 8 7 10 8 11 5 13 6 14 3 16 4 17
REMARK SMILES IDX 2 19 1 20
REMARK H PARENT 14 5 12 7 10 9 8 12 6 15 4 18
ROOT
ATOM      1  C   UNL     1     -24.293   1.216  11.340  1.00  0.00    +0.176 C 
ENDROOT
BRANCH   1   2
ATOM      2  C   UNL     1     -23.843   0.211  10.271  1.00  0.00    +0.171 C 
BRANCH   2   3
ATOM      3  C   UNL     1     -24.846  -0.916  10.023  1.00  0.00    +0.190 C 
BRANCH   3   4
ATOM      4  O   UNL     1     -25.797  -0.486   9.049  1.00  0.00    -0.394 OA
ATOM      5  H   UNL     1     -26.601  -0.266   9.564  1.00  0.00    +0.210 HD
ENDBRANCH   3   4
ENDBRANCH   2   3
BRANCH   2   6
ATOM      6  O   UNL     1     -23.666   0.915   9.022  1.00  0.00    -0.388 OA
ATOM      7  H   UNL     1     -23.515   1.850   9.272  1.00  0.00    +0.211 HD
ENDBRANCH   2   6
ENDBRANCH   1   2
BRANCH   1   8
ATOM      8  O   UNL     1     -25.390   0.622  12.075  1.00  0.00    -0.388 OA
ATOM      9  H   UNL     1     -26.091   1.312  12.122  1.00  0.00    +0.211 HD
ENDBRANCH   1   8
BRANCH   1  10
ATOM     10  C   UNL     1     -24.713   2.610  10.819  1.00  0.00    +0.177 C 
BRANCH  10  11
ATOM     11  O   UNL     1     -23.833   3.576  11.416  1.00  0.00    -0.387 OA
ATOM     12  H   UNL     1     -23.018   3.090  11.660  1.00  0.00    +0.211 HD
ENDBRANCH  10  11
BRANCH  10  13
ATOM     13  C   UNL     1     -26.187   2.979  11.133  1.00  0.00    +0.181 C 
BRANCH  13  14
ATOM     14  O   UNL     1     -26.251   4.394  11.433  1.00  0.00    -0.387 OA
ATOM     15  H   UNL     1     -26.642   4.791  10.621  1.00  0.00    +0.211 HD
ENDBRANCH  13  14
BRANCH  13  16
ATOM     16  C   UNL     1     -27.201   2.695  10.004  1.00  0.00    +0.209 C 
BRANCH  16  17
ATOM     17  O   UNL     1     -26.491   2.292   8.830  1.00  0.00    -0.383 OA
ATOM     18  H   UNL     1     -25.634   2.756   8.822  1.00  0.00    +0.211 HD
ENDBRANCH  16  17
BRANCH  16  19
ATOM     19  C   UNL     1     -28.266   1.700  10.436  1.00  0.00    +0.258 C 
ATOM     20  O   UNL     1     -28.011   0.578  10.866  1.00  0.00    -0.300 OA
ENDBRANCH  16  19
ENDBRANCH  13  16
ENDBRANCH  10  13
ENDBRANCH   1  10
TORSDOF 12
ENDMDL
MODEL 4
REMARK VINA RESULT:    -5.203      1.295      2.471
REMARK INTER + INTRA:          -8.951
REMARK INTER:                  -7.874
REMARK INTRA:                  -1.077
REMARK UNBOUND:                -1.011
REMARK SMILES O=C[C@H](O)[C@H](O)[C@@H](O)[C@@H](O)[C@H](O)CO
REMARK SMILES IDX 9 1 11 2 13 3 14 4 12 6 10 8 7 10 8 11 5 13 6 14 3 16 4 17
REMARK SMILES IDX 2 19 1 20
REMARK H PARENT 14 5 12 7 10 9 8 12 6 15 4 18
ROOT
ATOM      1  C   UNL     1     -24.263   2.518  10.095  1.00  0.00    +0.176 C 
ENDROOT
BRANCH   1   2
ATOM      2  C   UNL     1     -23.307   1.418   9.616  1.00  0.00    +0.171 C 
BRANCH   2   3
ATOM      3  C   UNL     1     -21.972   1.394  10.360  1.00  0.00    +0.190 C 
BRANCH   3   4
ATOM      4  O   UNL     1     -22.040   0.426  11.407  1.00  0.00    -0.394 OA
ATOM      5  H   UNL     1     -21.681   0.883  12.195  1.00  0.00    +0.210 HD
ENDBRANCH   3   4
ENDBRANCH   2   3
BRANCH   2   6
ATOM      6  O   UNL     1     -23.940   0.136   9.822  1.00  0.00    -0.388 OA
ATOM      7  H   UNL     1     -24.164  -0.190   8.925  1.00  0.00    +0.211 HD
ENDBRANCH   2   6
ENDBRANCH   1   2
BRANCH   1   8
ATOM      8  O   UNL     1     -23.891   2.873  11.448  1.00  0.00    -0.388 OA
ATOM      9  H   UNL     1     -23.436   3.744  11.386  1.00  0.00    +0.211 HD
ENDBRANCH   1   8
BRANCH   1  10
ATOM     10  C   UNL     1     -25.769   2.170  10.046  1.00  0.00    +0.177 C 
BRANCH  10  11
ATOM     11  O   UNL     1     -26.015   1.495   8.802  1.00  0.00    -0.387 OA
ATOM     12  H   UNL     1     -25.663   0.587   8.909  1.00  0.00    +0.211 HD
ENDBRANCH  10  11
BRANCH  10  13
ATOM     13  C   UNL     1     -26.702   3.404  10.167  1.00  0.00    +0.181 C 
BRANCH  13  14
ATOM     14  O   UNL     1     -25.958   4.483  10.781  1.00  0.00    -0.387 OA
ATOM     15  H   UNL     1     -25.017   4.253  10.602  1.00  0.00    +0.211 HD
ENDBRANCH  13  14
BRANCH  13  16
ATOM     16  C   UNL     1     -27.283   3.934   8.838  1.00  0.00    +0.209 C 
BRANCH  16  17
ATOM     17  O   UNL     1     -28.686   4.161   9.000  1.00  0.00    -0.383 OA
ATOM     18  H   UNL     1     -28.999   4.675   8.234  1.00  0.00    +0.211 HD
ENDBRANCH  16  17
BRANCH  16  19
ATOM     19  C   UNL     1     -26.528   5.154   8.336  1.00  0.00    +0.258 C 
ATOM     20  O   UNL     1     -25.391   5.104   7.872  1.00  0.00    -0.300 OA
ENDBRANCH  16  19
ENDBRANCH  13  16
ENDBRANCH  10  13
ENDBRANCH   1  10
TORSDOF 12
ENDMDL
MODEL 5
REMARK VINA RESULT:    -5.115      1.856      3.125
REMARK INTER + INTRA:          -8.818
REMARK INTER:                  -7.698
REMARK INTRA:                  -1.119
REMARK UNBOUND:                -1.011
REMARK SMILES O=C[C@H](O)[C@H](O)[C@@H](O)[C@@H](O)[C@H](O)CO
REMARK SMILES IDX 9 1 11 2 13 3 14 4 12 6 10 8 7 10 8 11 5 13 6 14 3 16 4 17
REMARK SMILES IDX 2 19 1 20
REMARK H PARENT 14 5 12 7 10 9 8 12 6 15 4 18
ROOT
ATOM      1  C   UNL     1     -24.019   1.978  10.877  1.00  0.00    +0.176 C 
ENDROOT
BRANCH   1   2
ATOM      2  C   UNL     1     -23.164   0.742  11.190  1.00  0.00    +0.171 C 
BRANCH   2   3
ATOM      3  C   UNL     1     -23.278  -0.366  10.143  1.00  0.00    +0.190 C 
BRANCH   3   4
ATOM      4  O   UNL     1     -24.457  -0.153   9.367  1.00  0.00    -0.394 OA
ATOM      5  H   UNL     1     -24.445   0.802   9.148  1.00  0.00    +0.210 HD
ENDBRANCH   3   4
ENDBRANCH   2   3
BRANCH   2   6
ATOM      6  O   UNL     1     -21.778   1.143  11.246  1.00  0.00    -0.388 OA
ATOM      7  H   UNL     1     -21.691   1.866  10.590  1.00  0.00    +0.211 HD
ENDBRANCH   2   6
ENDBRANCH   1   2
BRANCH   1   8
ATOM      8  O   UNL     1     -23.224   3.153  11.167  1.00  0.00    -0.388 OA
ATOM      9  H   UNL     1     -23.135   3.187  12.147  1.00  0.00    +0.211 HD
ENDBRANCH   1   8
BRANCH   1  10
ATOM     10  C   UNL     1     -25.370   2.070  11.625  1.00  0.00    +0.177 C 
BRANCH  10  11
ATOM     11  O   UNL     1     -25.870   0.731  11.775  1.00  0.00    -0.387 OA
ATOM     12  H   UNL     1     -26.312   0.701  12.648  1.00  0.00    +0.211 HD
ENDBRANCH  10  11
BRANCH  10  13
ATOM     13  C   UNL     1     -26.427   2.947  10.904  1.00  0.00    +0.181 C 
BRANCH  13  14
ATOM     14  O   UNL     1     -26.230   4.324  11.305  1.00  0.00    -0.387 OA
ATOM     15  H   UNL     1     -26.226   4.286  12.289  1.00  0.00    +0.211 HD
ENDBRANCH  13  14
BRANCH  13  16
ATOM     16  C   UNL     1     -26.394   2.901   9.361  1.00  0.00    +0.209 C 
BRANCH  16  17
ATOM     17  O   UNL     1     -26.828   1.610   8.925  1.00  0.00    -0.383 OA
ATOM     18  H   UNL     1     -27.773   1.519   9.144  1.00  0.00    +0.211 HD
ENDBRANCH  16  17
BRANCH  16  19
ATOM     19  C   UNL     1     -27.181   4.044   8.742  1.00  0.00    +0.258 C 
ATOM     20  O   UNL     1     -28.315   4.357   9.098  1.00  0.00    -0.300 OA
ENDBRANCH  16  19
ENDBRANCH  13  16
ENDBRANCH  10  13
ENDBRANCH   1  10
TORSDOF 12
ENDMDL
MODEL 6
REMARK VINA RESULT:    -5.099      8.850     11.119
REMARK INTER + INTRA:          -8.792
REMARK INTER:                  -7.730
REMARK INTRA:                  -1.062
REMARK UNBOUND:                -1.011
REMARK SMILES O=C[C@H](O)[C@H](O)[C@@H](O)[C@@H](O)[C@H](O)CO
REMARK SMILES IDX 9 1 11 2 13 3 14 4 12 6 10 8 7 10 8 11 5 13 6 14 3 16 4 17
REMARK SMILES IDX 2 19 1 20
REMARK H PARENT 14 5 12 7 10 9 8 12 6 15 4 18
ROOT
ATOM      1  C   UNL     1     -34.929   5.952   7.723  1.00  0.00    +0.176 C 
ENDROOT
BRANCH   1   2
ATOM      2  C   UNL     1     -33.748   5.494   6.856  1.00  0.00    +0.171 C 
BRANCH   2   3
ATOM      3  C   UNL     1     -34.037   5.523   5.356  1.00  0.00    +0.190 C 
BRANCH   3   4
ATOM      4  O   UNL     1     -34.525   6.816   5.001  1.00  0.00    -0.394 OA
ATOM      5  H   UNL     1     -34.538   7.319   5.842  1.00  0.00    +0.210 HD
ENDBRANCH   3   4
ENDBRANCH   2   3
BRANCH   2   6
ATOM      6  O   UNL     1     -32.630   6.376   7.099  1.00  0.00    -0.388 OA
ATOM      7  H   UNL     1     -32.574   6.947   6.305  1.00  0.00    +0.211 HD
ENDBRANCH   2   6
ENDBRANCH   1   2
BRANCH   1   8
ATOM      8  O   UNL     1     -34.878   7.396   7.816  1.00  0.00    -0.388 OA
ATOM      9  H   UNL     1     -35.463   7.640   8.570  1.00  0.00    +0.211 HD
ENDBRANCH   1   8
BRANCH   1  10
ATOM     10  C   UNL     1     -34.999   5.343   9.143  1.00  0.00    +0.177 C 
BRANCH  10  11
ATOM     11  O   UNL     1     -34.688   3.945   9.027  1.00  0.00    -0.387 OA
ATOM     12  H   UNL     1     -33.734   3.893   8.812  1.00  0.00    +0.211 HD
ENDBRANCH  10  11
BRANCH  10  13
ATOM     13  C   UNL     1     -36.378   5.518   9.833  1.00  0.00    +0.181 C 
BRANCH  13  14
ATOM     14  O   UNL     1     -36.598   6.930  10.062  1.00  0.00    -0.387 OA
ATOM     15  H   UNL     1     -37.579   7.016  10.082  1.00  0.00    +0.211 HD
ENDBRANCH  13  14
BRANCH  13  16
ATOM     16  C   UNL     1     -37.591   4.977   9.047  1.00  0.00    +0.209 C 
BRANCH  16  17
ATOM     17  O   UNL     1     -37.361   3.603   8.722  1.00  0.00    -0.383 OA
ATOM     18  H   UNL     1     -37.385   3.089   9.550  1.00  0.00    +0.211 HD
ENDBRANCH  16  17
BRANCH  16  19
ATOM     19  C   UNL     1     -38.897   5.211   9.788  1.00  0.00    +0.258 C 
ATOM     20  O   UNL     1     -39.311   6.327  10.096  1.00  0.00    -0.300 OA
ENDBRANCH  16  19
ENDBRANCH  13  16
ENDBRANCH  10  13
ENDBRANCH   1  10
TORSDOF 12
ENDMDL
MODEL 7
REMARK VINA RESULT:    -5.095      2.096      3.398
REMARK INTER + INTRA:          -8.786
REMARK INTER:                  -7.707
REMARK INTRA:                  -1.079
REMARK UNBOUND:                -1.011
REMARK SMILES O=C[C@H](O)[C@H](O)[C@@H](O)[C@@H](O)[C@H](O)CO
REMARK SMILES IDX 9 1 11 2 13 3 14 4 12 6 10 8 7 10 8 11 5 13 6 14 3 16 4 17
REMARK SMILES IDX 2 19 1 20
REMARK H PARENT 14 5 12 7 10 9 8 12 6 15 4 18
ROOT
ATOM      1  C   UNL     1     -24.683   0.553   9.946  1.00  0.00    +0.176 C 
ENDROOT
BRANCH   1   2
ATOM      2  C   UNL     1     -23.522   1.533   9.727  1.00  0.00    +0.171 C 
BRANCH   2   3
ATOM      3  C   UNL     1     -22.783   1.909  11.011  1.00  0.00    +0.190 C 
BRANCH   3   4
ATOM      4  O   UNL     1     -23.123   3.248  11.369  1.00  0.00    -0.394 OA
ATOM      5  H   UNL     1     -23.798   3.156  12.073  1.00  0.00    +0.210 HD
ENDBRANCH   3   4
ENDBRANCH   2   3
BRANCH   2   6
ATOM      6  O   UNL     1     -22.563   0.919   8.839  1.00  0.00    -0.388 OA
ATOM      7  H   UNL     1     -21.773   0.744   9.392  1.00  0.00    +0.211 HD
ENDBRANCH   2   6
ENDBRANCH   1   2
BRANCH   1   8
ATOM      8  O   UNL     1     -25.511   0.572   8.759  1.00  0.00    -0.388 OA
ATOM      9  H   UNL     1     -24.914   0.813   8.014  1.00  0.00    +0.211 HD
ENDBRANCH   1   8
BRANCH   1  10
ATOM     10  C   UNL     1     -25.559   0.814  11.193  1.00  0.00    +0.177 C 
BRANCH  10  11
ATOM     11  O   UNL     1     -25.918  -0.463  11.743  1.00  0.00    -0.387 OA
ATOM     12  H   UNL     1     -25.393  -0.565  12.563  1.00  0.00    +0.211 HD
ENDBRANCH  10  11
BRANCH  10  13
ATOM     13  C   UNL     1     -26.842   1.637  10.897  1.00  0.00    +0.181 C 
BRANCH  13  14
ATOM     14  O   UNL     1     -27.919   1.113  11.711  1.00  0.00    -0.387 OA
ATOM     15  H   UNL     1     -27.473   0.839  12.545  1.00  0.00    +0.211 HD
ENDBRANCH  13  14
BRANCH  13  16
ATOM     16  C   UNL     1     -26.742   3.152  11.173  1.00  0.00    +0.209 C 
BRANCH  16  17
ATOM     17  O   UNL     1     -25.867   3.367  12.283  1.00  0.00    -0.383 OA
ATOM     18  H   UNL     1     -25.909   4.310  12.523  1.00  0.00    +0.211 HD
ENDBRANCH  16  17
BRANCH  16  19
ATOM     19  C   UNL     1     -26.342   3.929   9.930  1.00  0.00    +0.258 C 
ATOM     20  O   UNL     1     -26.333   3.445   8.800  1.00  0.00    -0.300 OA
ENDBRANCH  16  19
ENDBRANCH  13  16
ENDBRANCH  10  13
ENDBRANCH   1  10
TORSDOF 12
ENDMDL
MODEL 8
REMARK VINA RESULT:    -5.059      1.630      2.812
REMARK INTER + INTRA:          -8.731
REMARK INTER:                  -7.801
REMARK INTRA:                  -0.931
REMARK UNBOUND:                -1.011
REMARK SMILES O=C[C@H](O)[C@H](O)[C@@H](O)[C@@H](O)[C@H](O)CO
REMARK SMILES IDX 9 1 11 2 13 3 14 4 12 6 10 8 7 10 8 11 5 13 6 14 3 16 4 17
REMARK SMILES IDX 2 19 1 20
REMARK H PARENT 14 5 12 7 10 9 8 12 6 15 4 18
ROOT
ATOM      1  C   UNL     1     -24.935   1.153  11.187  1.00  0.00    +0.176 C 
ENDROOT
BRANCH   1   2
ATOM      2  C   UNL     1     -25.273   0.055  10.170  1.00  0.00    +0.171 C 
BRANCH   2   3
ATOM      3  C   UNL     1     -26.699  -0.481  10.292  1.00  0.00    +0.190 C 
BRANCH   3   4
ATOM      4  O   UNL     1     -27.586   0.396   9.599  1.00  0.00    -0.394 OA
ATOM      5  H   UNL     1     -27.941  -0.140   8.859  1.00  0.00    +0.210 HD
ENDBRANCH   3   4
ENDBRANCH   2   3
BRANCH   2   6
ATOM      6  O   UNL     1     -25.127   0.599   8.839  1.00  0.00    -0.388 OA
ATOM      7  H   UNL     1     -24.741  -0.125   8.304  1.00  0.00    +0.211 HD
ENDBRANCH   2   6
ENDBRANCH   1   2
BRANCH   1   8
ATOM      8  O   UNL     1     -25.911   1.087  12.254  1.00  0.00    -0.388 OA
ATOM      9  H   UNL     1     -25.656   1.785  12.900  1.00  0.00    +0.211 HD
ENDBRANCH   1   8
BRANCH   1  10
ATOM     10  C   UNL     1     -24.875   2.594  10.628  1.00  0.00    +0.177 C 
BRANCH  10  11
ATOM     11  O   UNL     1     -23.955   3.335  11.445  1.00  0.00    -0.387 OA
ATOM     12  H   UNL     1     -23.256   2.704  11.712  1.00  0.00    +0.211 HD
ENDBRANCH  10  11
BRANCH  10  13
ATOM     13  C   UNL     1     -26.250   3.313  10.600  1.00  0.00    +0.181 C 
BRANCH  13  14
ATOM     14  O   UNL     1     -26.146   4.527  11.382  1.00  0.00    -0.387 OA
ATOM     15  H   UNL     1     -26.402   5.238  10.751  1.00  0.00    +0.211 HD
ENDBRANCH  13  14
BRANCH  13  16
ATOM     16  C   UNL     1     -26.773   3.702   9.201  1.00  0.00    +0.209 C 
BRANCH  16  17
ATOM     17  O   UNL     1     -28.172   3.414   9.130  1.00  0.00    -0.383 OA
ATOM     18  H   UNL     1     -28.513   3.777   8.293  1.00  0.00    +0.211 HD
ENDBRANCH  16  17
BRANCH  16  19
ATOM     19  C   UNL     1     -26.434   5.141   8.848  1.00  0.00    +0.258 C 
ATOM     20  O   UNL     1     -25.283   5.560   8.743  1.00  0.00    -0.300 OA
ENDBRANCH  16  19
ENDBRANCH  13  16
ENDBRANCH  10  13
ENDBRANCH   1  10
TORSDOF 12
ENDMDL
MODEL 9
REMARK VINA RESULT:    -4.938      2.394      4.087
REMARK INTER + INTRA:          -8.547
REMARK INTER:                  -7.317
REMARK INTRA:                  -1.230
REMARK UNBOUND:                -1.011
REMARK SMILES O=C[C@H](O)[C@H](O)[C@@H](O)[C@@H](O)[C@H](O)CO
REMARK SMILES IDX 9 1 11 2 13 3 14 4 12 6 10 8 7 10 8 11 5 13 6 14 3 16 4 17
REMARK SMILES IDX 2 19 1 20
REMARK H PARENT 14 5 12 7 10 9 8 12 6 15 4 18
ROOT
ATOM      1  C   UNL     1     -26.193   0.116  11.146  1.00  0.00    +0.176 C 
ENDROOT
BRANCH   1   2
ATOM      2  C   UNL     1     -26.812   1.019  12.222  1.00  0.00    +0.171 C 
BRANCH   2   3
ATOM      3  C   UNL     1     -28.229   1.486  11.893  1.00  0.00    +0.190 C 
BRANCH   3   4
ATOM      4  O   UNL     1     -28.230   2.098  10.604  1.00  0.00    -0.394 OA
ATOM      5  H   UNL     1     -27.674   2.898  10.705  1.00  0.00    +0.210 HD
ENDBRANCH   3   4
ENDBRANCH   2   3
BRANCH   2   6
ATOM      6  O   UNL     1     -26.876   0.280  13.462  1.00  0.00    -0.388 OA
ATOM      7  H   UNL     1     -26.222  -0.443  13.366  1.00  0.00    +0.211 HD
ENDBRANCH   2   6
ENDBRANCH   1   2
BRANCH   1   8
ATOM      8  O   UNL     1     -26.206  -1.243  11.645  1.00  0.00    -0.388 OA
ATOM      9  H   UNL     1     -25.824  -1.204  12.551  1.00  0.00    +0.211 HD
ENDBRANCH   1   8
BRANCH   1  10
ATOM     10  C   UNL     1     -24.762   0.489  10.695  1.00  0.00    +0.177 C 
BRANCH  10  11
ATOM     11  O   UNL     1     -23.959   0.627  11.879  1.00  0.00    -0.387 OA
ATOM     12  H   UNL     1     -23.617   1.545  11.872  1.00  0.00    +0.211 HD
ENDBRANCH  10  11
BRANCH  10  13
ATOM     13  C   UNL     1     -24.688   1.793   9.857  1.00  0.00    +0.181 C 
BRANCH  13  14
ATOM     14  O   UNL     1     -25.801   1.805   8.931  1.00  0.00    -0.387 OA
ATOM     15  H   UNL     1     -25.538   1.161   8.235  1.00  0.00    +0.211 HD
ENDBRANCH  13  14
BRANCH  13  16
ATOM     16  C   UNL     1     -24.736   3.108  10.663  1.00  0.00    +0.209 C 
BRANCH  16  17
ATOM     17  O   UNL     1     -23.412   3.439  11.093  1.00  0.00    -0.383 OA
ATOM     18  H   UNL     1     -23.477   3.871  11.964  1.00  0.00    +0.211 HD
ENDBRANCH  16  17
BRANCH  16  19
ATOM     19  C   UNL     1     -25.415   4.225   9.886  1.00  0.00    +0.258 C 
ATOM     20  O   UNL     1     -26.616   4.471   9.964  1.00  0.00    -0.300 OA
ENDBRANCH  16  19
ENDBRANCH  13  16
ENDBRANCH  10  13
ENDBRANCH   1  10
TORSDOF 12
ENDMDL
