REMARK SMILES CC(=NN=C(C)c1cccc([N+](=O)[O-])c1)c1cccc([N+](=O)[O-])c1
REMARK SMILES IDX 1 1 2 2 3 3 16 4 17 5 24 6 18 7 20 8 19 9 21 10 22 11 23 12
REMARK SMILES IDX 4 13 5 14 6 15 7 16 15 17 8 18 11 19 9 20 10 21 12 22 13 23
REMARK SMILES IDX 14 24
REMARK H PARENT
ROOT
ATOM      1  C   UNL     1       1.342   1.854   1.063  1.00  0.00    +0.069 C 
ATOM      2  C   UNL     1       1.599   0.597   0.255  1.00  0.00    +0.067 C 
ATOM      3  N   UNL     1       0.650  -0.110  -0.289  1.00  0.00    -0.155 NA
ENDROOT
BRANCH   2   4
ATOM      4  C   UNL     1       3.009   0.139   0.083  1.00  0.00    +0.004 A 
ATOM      5  C   UNL     1       3.356  -0.569  -1.078  1.00  0.00    +0.010 A 
ATOM      6  C   UNL     1       3.976   0.375   1.066  1.00  0.00    +0.095 A 
ATOM      7  C   UNL     1       4.662  -1.022  -1.271  1.00  0.00    +0.008 A 
ATOM      8  C   UNL     1       5.286  -0.084   0.865  1.00  0.00    +0.270 A 
ATOM      9  C   UNL     1       5.635  -0.780  -0.301  1.00  0.00    +0.085 A 
BRANCH   8  10
ATOM     10  N   UNL     1       6.306   0.164   1.892  1.00  0.00    +0.062 N 
ATOM     11  O   UNL     1       7.440  -0.299   1.703  1.00  0.00    -0.258 OA
ATOM     12  O   UNL     1       5.972   0.824   2.885  1.00  0.00    -0.258 OA
ENDBRANCH   8  10
ENDBRANCH   2   4
BRANCH   3  13
ATOM     13  N   UNL     1      -0.625   0.381  -0.051  1.00  0.00    -0.155 NA
ATOM     14  C   UNL     1      -1.577  -0.361  -0.539  1.00  0.00    +0.067 C 
ATOM     15  C   UNL     1      -1.322  -1.639  -1.313  1.00  0.00    +0.069 C 
BRANCH  14  16
ATOM     16  C   UNL     1      -2.991   0.064  -0.314  1.00  0.00    +0.004 A 
ATOM     17  C   UNL     1      -4.022  -0.874  -0.195  1.00  0.00    +0.095 A 
ATOM     18  C   UNL     1      -3.276   1.432  -0.193  1.00  0.00    +0.010 A 
ATOM     19  C   UNL     1      -5.333  -0.427   0.027  1.00  0.00    +0.270 A 
ATOM     20  C   UNL     1      -4.585   1.869   0.027  1.00  0.00    +0.008 A 
ATOM     21  C   UNL     1      -5.620   0.941   0.135  1.00  0.00    +0.085 A 
BRANCH  19  22
ATOM     22  N   UNL     1      -6.420  -1.407   0.151  1.00  0.00    +0.062 N 
ATOM     23  O   UNL     1      -6.136  -2.603  -0.001  1.00  0.00    -0.258 OA
ATOM     24  O   UNL     1      -7.557  -0.980   0.396  1.00  0.00    -0.258 OA
ENDBRANCH  19  22
ENDBRANCH  14  16
ENDBRANCH   3  13
TORSDOF 5
