REMARK SMILES O=C(O)C1CC1
REMARK SMILES IDX 2 1 1 2 3 3 4 5 5 6 6 7
REMARK H PARENT 3 4
ROOT
ATOM      1  C   UNL     1       1.302  -0.077  -0.099  1.00  0.00    +0.306 C 
ATOM      2  O   UNL     1       1.590  -0.454  -1.222  1.00  0.00    -0.252 OA
ENDROOT
BRANCH   1   3
ATOM      3  O   UNL     1       2.243   0.175   0.830  1.00  0.00    -0.481 OA
ATOM      4  H   UNL     1       3.083  -0.017   0.363  1.00  0.00    +0.296 HD
ENDBRANCH   1   3
BRANCH   1   5
ATOM      5  C   UNL     1      -0.072   0.151   0.395  1.00  0.00    +0.099 C 
ATOM      6  C   UNL     1      -1.135   0.695  -0.529  1.00  0.00    +0.016 C 
ATOM      7  C   UNL     1      -1.206  -0.732  -0.069  1.00  0.00    +0.016 C 
ENDBRANCH   1   5
TORSDOF 2
