REMARK SMILES O=C1O[C@H]([C@@H](O)[C@H](O)[C@H](O)CO)[C@@H](O)[C@H]1O
REMARK SMILES IDX 7 1 9 2 11 3 12 4 10 6 8 8 5 10 6 11 4 13 3 14 13 15 2 16
REMARK SMILES IDX 15 17 1 18 14 19 16 21
REMARK H PARENT 12 5 10 7 8 9 6 12 14 20 16 22
ROOT
ATOM      1  C   UNL     1      -1.046  -0.839   0.767  1.00  0.00    +0.178 C 
ENDROOT
BRANCH   1   2
ATOM      2  C   UNL     1      -2.068   0.309   0.808  1.00  0.00    +0.171 C 
BRANCH   2   3
ATOM      3  C   UNL     1      -2.925   0.442  -0.457  1.00  0.00    +0.190 C 
BRANCH   3   4
ATOM      4  O   UNL     1      -3.802   1.559  -0.316  1.00  0.00    -0.394 OA
ATOM      5  H   UNL     1      -4.117   1.552   0.609  1.00  0.00    +0.210 HD
ENDBRANCH   3   4
ENDBRANCH   2   3
BRANCH   2   6
ATOM      6  O   UNL     1      -2.964   0.096   1.918  1.00  0.00    -0.388 OA
ATOM      7  H   UNL     1      -3.492  -0.697   1.710  1.00  0.00    +0.211 HD
ENDBRANCH   2   6
ENDBRANCH   1   2
BRANCH   1   8
ATOM      8  O   UNL     1      -1.748  -2.099   0.690  1.00  0.00    -0.387 OA
ATOM      9  H   UNL     1      -1.958  -2.349   1.611  1.00  0.00    +0.211 HD
ENDBRANCH   1   8
BRANCH   1  10
ATOM     10  C   UNL     1      -0.053  -0.797  -0.413  1.00  0.00    +0.189 C 
BRANCH  10  11
ATOM     11  O   UNL     1       0.794  -1.951  -0.304  1.00  0.00    -0.386 OA
ATOM     12  H   UNL     1       0.189  -2.705  -0.140  1.00  0.00    +0.211 HD
ENDBRANCH  10  11
BRANCH  10  13
ATOM     13  C   UNL     1       0.798   0.483  -0.464  1.00  0.00    +0.239 C 
ATOM     14  O   UNL     1       1.425   0.720   0.808  1.00  0.00    -0.455 OA
ATOM     15  C   UNL     1       1.961   0.441  -1.444  1.00  0.00    +0.198 C 
ATOM     16  C   UNL     1       2.749   0.358   0.760  1.00  0.00    +0.338 C 
ATOM     17  C   UNL     1       3.109  -0.144  -0.633  1.00  0.00    +0.256 C 
ATOM     18  O   UNL     1       3.502   0.473   1.714  1.00  0.00    -0.249 OA
BRANCH  15  19
ATOM     19  O   UNL     1       2.318   1.780  -1.859  1.00  0.00    -0.386 OA
ATOM     20  H   UNL     1       2.251   2.382  -1.093  1.00  0.00    +0.211 HD
ENDBRANCH  15  19
BRANCH  17  21
ATOM     21  O   UNL     1       4.362   0.242  -1.171  1.00  0.00    -0.379 OA
ATOM     22  H   UNL     1       4.233   1.122  -1.576  1.00  0.00    +0.211 HD
ENDBRANCH  17  21
ENDBRANCH  10  13
ENDBRANCH   1  10
TORSDOF 10
