REMARK SMILES Oc1ccccc1C=NN=Cc1ccccc1O
REMARK SMILES IDX 8 1 9 2 7 3 2 4 3 5 6 6 4 7 5 8 1 9 10 11 11 12 12 13 17 14
REMARK SMILES IDX 13 15 16 16 14 17 15 18 18 19
REMARK H PARENT 1 10 18 20
ROOT
ATOM      1  C   UNL     1      -1.531  -0.816  -0.168  1.00  0.00    +0.147 C 
ATOM      2  N   UNL     1      -0.731   0.200  -0.069  1.00  0.00    -0.158 NA
ENDROOT
BRANCH   1   3
ATOM      3  C   UNL     1      -2.989  -0.641  -0.310  1.00  0.00    +0.036 A 
ATOM      4  C   UNL     1      -3.591   0.623  -0.345  1.00  0.00    +0.124 A 
ATOM      5  C   UNL     1      -4.972   0.739  -0.481  1.00  0.00    +0.047 A 
ATOM      6  C   UNL     1      -3.781  -1.790  -0.411  1.00  0.00    +0.013 A 
ATOM      7  C   UNL     1      -5.760  -0.408  -0.582  1.00  0.00    +0.004 A 
ATOM      8  C   UNL     1      -5.167  -1.671  -0.547  1.00  0.00    +0.001 A 
BRANCH   4   9
ATOM      9  O   UNL     1      -2.884   1.791  -0.252  1.00  0.00    -0.507 OA
ATOM     10  H   UNL     1      -1.936   1.548  -0.163  1.00  0.00    +0.293 HD
ENDBRANCH   4   9
ENDBRANCH   1   3
BRANCH   2  11
ATOM     11  N   UNL     1       0.584  -0.233   0.054  1.00  0.00    -0.158 NA
ATOM     12  C   UNL     1       1.403   0.765   0.155  1.00  0.00    +0.147 C 
BRANCH  12  13
ATOM     13  C   UNL     1       2.870   0.630   0.298  1.00  0.00    +0.036 A 
ATOM     14  C   UNL     1       3.554  -0.591   0.343  1.00  0.00    +0.124 A 
ATOM     15  C   UNL     1       3.597   1.827   0.394  1.00  0.00    +0.013 A 
ATOM     16  C   UNL     1       4.945  -0.612   0.481  1.00  0.00    +0.047 A 
ATOM     17  C   UNL     1       4.987   1.803   0.531  1.00  0.00    +0.001 A 
ATOM     18  C   UNL     1       5.659   0.584   0.575  1.00  0.00    +0.004 A 
BRANCH  14  19
ATOM     19  O   UNL     1       2.886  -1.779   0.253  1.00  0.00    -0.507 OA
ATOM     20  H   UNL     1       3.514  -2.515   0.301  1.00  0.00    +0.293 HD
ENDBRANCH  14  19
ENDBRANCH  12  13
ENDBRANCH   2  11
TORSDOF 5
