MODEL 1
REMARK VINA RESULT:    -6.696      0.000      0.000
REMARK INTER + INTRA:          -7.828
REMARK INTER:                  -7.674
REMARK INTRA:                  -0.153
REMARK UNBOUND:                -0.153
REMARK SMILES O=C(O)C=Cc1ccc(Cl)cc1
REMARK SMILES IDX 2 1 1 2 3 3 4 5 5 6 6 7 7 8 12 9 8 10 11 11 9 12 10 13
REMARK H PARENT 3 4
ROOT
ATOM      1  C   UNL     1     -26.201   5.851   8.070  1.00  0.00    +0.328 C 
ATOM      2  O   UNL     1     -25.420   5.024   7.632  1.00  0.00    -0.247 OA
ENDROOT
BRANCH   1   3
ATOM      3  O   UNL     1     -26.916   5.626   9.182  1.00  0.00    -0.478 OA
ATOM      4  H   UNL     1     -27.692   5.121   8.861  1.00  0.00    +0.297 HD
ENDBRANCH   1   3
BRANCH   1   5
ATOM      5  C   UNL     1     -26.450   7.161   7.452  1.00  0.00    +0.094 C 
ATOM      6  C   UNL     1     -27.634   7.792   7.499  1.00  0.00    +0.015 C 
BRANCH   6   7
ATOM      7  C   UNL     1     -27.886   9.106   6.893  1.00  0.00    -0.025 A 
ATOM      8  C   UNL     1     -26.881   9.693   6.113  1.00  0.00    +0.009 A 
ATOM      9  C   UNL     1     -29.075   9.817   7.111  1.00  0.00    +0.009 A 
ATOM     10  C   UNL     1     -27.069  10.954   5.539  1.00  0.00    +0.021 A 
ATOM     11  C   UNL     1     -29.265  11.078   6.538  1.00  0.00    +0.021 A 
ATOM     12  C   UNL     1     -28.262  11.640   5.752  1.00  0.00    +0.041 A 
ATOM     13 Cl   UNL     1     -28.494  13.192   5.047  1.00  0.00    -0.084 Cl
ENDBRANCH   6   7
ENDBRANCH   1   5
TORSDOF 3
ENDMDL
MODEL 2
REMARK VINA RESULT:    -6.516      3.632      4.682
REMARK INTER + INTRA:          -7.621
REMARK INTER:                  -7.477
REMARK INTRA:                  -0.144
REMARK UNBOUND:                -0.153
REMARK SMILES O=C(O)C=Cc1ccc(Cl)cc1
REMARK SMILES IDX 2 1 1 2 3 3 4 5 5 6 6 7 7 8 12 9 8 10 11 11 9 12 10 13
REMARK H PARENT 3 4
ROOT
ATOM      1  C   UNL     1     -33.284   7.030   7.365  1.00  0.00    +0.328 C 
ATOM      2  O   UNL     1     -32.849   5.930   7.654  1.00  0.00    -0.247 OA
ENDROOT
BRANCH   1   3
ATOM      3  O   UNL     1     -34.591   7.316   7.449  1.00  0.00    -0.478 OA
ATOM      4  H   UNL     1     -34.607   8.244   7.763  1.00  0.00    +0.297 HD
ENDBRANCH   1   3
BRANCH   1   5
ATOM      5  C   UNL     1     -32.455   8.151   6.899  1.00  0.00    +0.094 C 
ATOM      6  C   UNL     1     -31.258   8.458   7.423  1.00  0.00    +0.015 C 
BRANCH   6   7
ATOM      7  C   UNL     1     -30.420   9.570   6.955  1.00  0.00    -0.025 A 
ATOM      8  C   UNL     1     -31.036  10.782   6.614  1.00  0.00    +0.009 A 
ATOM      9  C   UNL     1     -29.033   9.446   6.786  1.00  0.00    +0.009 A 
ATOM     10  C   UNL     1     -30.280  11.858   6.139  1.00  0.00    +0.021 A 
ATOM     11  C   UNL     1     -28.276  10.521   6.311  1.00  0.00    +0.021 A 
ATOM     12  C   UNL     1     -28.902  11.723   5.993  1.00  0.00    +0.041 A 
ATOM     13 Cl   UNL     1     -27.970  13.046   5.407  1.00  0.00    -0.084 Cl
ENDBRANCH   6   7
ENDBRANCH   1   5
TORSDOF 3
ENDMDL
MODEL 3
REMARK VINA RESULT:    -6.338      4.470      5.776
REMARK INTER + INTRA:          -7.418
REMARK INTER:                  -7.267
REMARK INTRA:                  -0.151
REMARK UNBOUND:                -0.153
REMARK SMILES O=C(O)C=Cc1ccc(Cl)cc1
REMARK SMILES IDX 2 1 1 2 3 3 4 5 5 6 6 7 7 8 12 9 8 10 11 11 9 12 10 13
REMARK H PARENT 3 4
ROOT
ATOM      1  C   UNL     1     -28.444  12.476   5.448  1.00  0.00    +0.328 C 
ATOM      2  O   UNL     1     -29.652  12.641   5.454  1.00  0.00    -0.247 OA
ENDROOT
BRANCH   1   3
ATOM      3  O   UNL     1     -27.602  13.450   5.076  1.00  0.00    -0.478 OA
ATOM      4  H   UNL     1     -27.552  13.355   4.102  1.00  0.00    +0.297 HD
ENDBRANCH   1   3
BRANCH   1   5
ATOM      5  C   UNL     1     -27.780  11.223   5.836  1.00  0.00    +0.094 C 
ATOM      6  C   UNL     1     -28.345  10.294   6.621  1.00  0.00    +0.015 C 
BRANCH   6   7
ATOM      7  C   UNL     1     -27.690   9.036   7.004  1.00  0.00    -0.025 A 
ATOM      8  C   UNL     1     -26.392   8.784   6.541  1.00  0.00    +0.009 A 
ATOM      9  C   UNL     1     -28.337   8.056   7.771  1.00  0.00    +0.009 A 
ATOM     10  C   UNL     1     -25.741   7.588   6.859  1.00  0.00    +0.021 A 
ATOM     11  C   UNL     1     -27.687   6.860   8.091  1.00  0.00    +0.021 A 
ATOM     12  C   UNL     1     -26.392   6.632   7.635  1.00  0.00    +0.041 A 
ATOM     13 Cl   UNL     1     -25.592   5.159   8.027  1.00  0.00    -0.084 Cl
ENDBRANCH   6   7
ENDBRANCH   1   5
TORSDOF 3
ENDMDL
MODEL 4
REMARK VINA RESULT:    -6.273      3.265      3.926
REMARK INTER + INTRA:          -7.344
REMARK INTER:                  -7.204
REMARK INTRA:                  -0.140
REMARK UNBOUND:                -0.153
REMARK SMILES O=C(O)C=Cc1ccc(Cl)cc1
REMARK SMILES IDX 2 1 1 2 3 3 4 5 5 6 6 7 7 8 12 9 8 10 11 11 9 12 10 13
REMARK H PARENT 3 4
ROOT
ATOM      1  C   UNL     1     -32.472   6.679   7.589  1.00  0.00    +0.328 C 
ATOM      2  O   UNL     1     -33.046   5.871   6.882  1.00  0.00    -0.247 OA
ENDROOT
BRANCH   1   3
ATOM      3  O   UNL     1     -32.317   6.479   8.906  1.00  0.00    -0.478 OA
ATOM      4  H   UNL     1     -32.184   5.511   8.980  1.00  0.00    +0.297 HD
ENDBRANCH   1   3
BRANCH   1   5
ATOM      5  C   UNL     1     -31.894   7.940   7.103  1.00  0.00    +0.094 C 
ATOM      6  C   UNL     1     -30.616   8.298   7.304  1.00  0.00    +0.015 C 
BRANCH   6   7
ATOM      7  C   UNL     1     -30.030   9.552   6.811  1.00  0.00    -0.025 A 
ATOM      8  C   UNL     1     -28.658   9.588   6.527  1.00  0.00    +0.009 A 
ATOM      9  C   UNL     1     -30.782  10.727   6.667  1.00  0.00    +0.009 A 
ATOM     10  C   UNL     1     -28.053  10.767   6.081  1.00  0.00    +0.021 A 
ATOM     11  C   UNL     1     -30.179  11.907   6.221  1.00  0.00    +0.021 A 
ATOM     12  C   UNL     1     -28.818  11.921   5.928  1.00  0.00    +0.041 A 
ATOM     13 Cl   UNL     1     -28.075  13.374   5.380  1.00  0.00    -0.084 Cl
ENDBRANCH   6   7
ENDBRANCH   1   5
TORSDOF 3
ENDMDL
MODEL 5
REMARK VINA RESULT:    -6.080      4.282      5.487
REMARK INTER + INTRA:          -7.122
REMARK INTER:                  -6.984
REMARK INTRA:                  -0.138
REMARK UNBOUND:                -0.153
REMARK SMILES O=C(O)C=Cc1ccc(Cl)cc1
REMARK SMILES IDX 2 1 1 2 3 3 4 5 5 6 6 7 7 8 12 9 8 10 11 11 9 12 10 13
REMARK H PARENT 3 4
ROOT
ATOM      1  C   UNL     1     -26.683  11.661   5.374  1.00  0.00    +0.328 C 
ATOM      2  O   UNL     1     -27.219  12.705   5.047  1.00  0.00    -0.247 OA
ENDROOT
BRANCH   1   3
ATOM      3  O   UNL     1     -25.355  11.498   5.298  1.00  0.00    -0.478 OA
ATOM      4  H   UNL     1     -25.029  11.837   6.157  1.00  0.00    +0.297 HD
ENDBRANCH   1   3
BRANCH   1   5
ATOM      5  C   UNL     1     -27.404  10.483   5.877  1.00  0.00    +0.094 C 
ATOM      6  C   UNL     1     -28.596  10.547   6.491  1.00  0.00    +0.015 C 
BRANCH   6   7
ATOM      7  C   UNL     1     -29.326   9.373   6.987  1.00  0.00    -0.025 A 
ATOM      8  C   UNL     1     -30.725   9.367   6.909  1.00  0.00    +0.009 A 
ATOM      9  C   UNL     1     -28.677   8.282   7.584  1.00  0.00    +0.009 A 
ATOM     10  C   UNL     1     -31.462   8.282   7.392  1.00  0.00    +0.021 A 
ATOM     11  C   UNL     1     -29.412   7.196   8.068  1.00  0.00    +0.021 A 
ATOM     12  C   UNL     1     -30.801   7.199   7.968  1.00  0.00    +0.041 A 
ATOM     13 Cl   UNL     1     -31.706   5.863   8.564  1.00  0.00    -0.084 Cl
ENDBRANCH   6   7
ENDBRANCH   1   5
TORSDOF 3
ENDMDL
MODEL 6
REMARK VINA RESULT:    -6.059      4.823      5.759
REMARK INTER + INTRA:          -7.097
REMARK INTER:                  -6.961
REMARK INTRA:                  -0.137
REMARK UNBOUND:                -0.153
REMARK SMILES O=C(O)C=Cc1ccc(Cl)cc1
REMARK SMILES IDX 2 1 1 2 3 3 4 5 5 6 6 7 7 8 12 9 8 10 11 11 9 12 10 13
REMARK H PARENT 3 4
ROOT
ATOM      1  C   UNL     1     -27.643   9.585   6.797  1.00  0.00    +0.328 C 
ATOM      2  O   UNL     1     -27.706  10.685   6.278  1.00  0.00    -0.247 OA
ENDROOT
BRANCH   1   3
ATOM      3  O   UNL     1     -26.546   9.175   7.449  1.00  0.00    -0.478 OA
ATOM      4  H   UNL     1     -25.809   9.475   6.876  1.00  0.00    +0.297 HD
ENDBRANCH   1   3
BRANCH   1   5
ATOM      5  C   UNL     1     -28.731   8.596   6.775  1.00  0.00    +0.094 C 
ATOM      6  C   UNL     1     -30.032   8.921   6.819  1.00  0.00    +0.015 C 
BRANCH   6   7
ATOM      7  C   UNL     1     -31.123   7.939   6.786  1.00  0.00    -0.025 A 
ATOM      8  C   UNL     1     -31.356   7.151   7.921  1.00  0.00    +0.009 A 
ATOM      9  C   UNL     1     -31.905   7.723   5.642  1.00  0.00    +0.009 A 
ATOM     10  C   UNL     1     -32.367   6.185   7.925  1.00  0.00    +0.021 A 
ATOM     11  C   UNL     1     -32.917   6.758   5.643  1.00  0.00    +0.021 A 
ATOM     12  C   UNL     1     -33.145   5.995   6.785  1.00  0.00    +0.041 A 
ATOM     13 Cl   UNL     1     -34.389   4.806   6.787  1.00  0.00    -0.084 Cl
ENDBRANCH   6   7
ENDBRANCH   1   5
TORSDOF 3
ENDMDL
MODEL 7
REMARK VINA RESULT:    -5.951      2.333      3.297
REMARK INTER + INTRA:          -6.974
REMARK INTER:                  -6.830
REMARK INTRA:                  -0.144
REMARK UNBOUND:                -0.153
REMARK SMILES O=C(O)C=Cc1ccc(Cl)cc1
REMARK SMILES IDX 2 1 1 2 3 3 4 5 5 6 6 7 7 8 12 9 8 10 11 11 9 12 10 13
REMARK H PARENT 3 4
ROOT
ATOM      1  C   UNL     1     -26.861   3.440   9.412  1.00  0.00    +0.328 C 
ATOM      2  O   UNL     1     -27.794   2.938  10.015  1.00  0.00    -0.247 OA
ENDROOT
BRANCH   1   3
ATOM      3  O   UNL     1     -25.732   2.759   9.169  1.00  0.00    -0.478 OA
ATOM      4  H   UNL     1     -25.302   2.702  10.047  1.00  0.00    +0.297 HD
ENDBRANCH   1   3
BRANCH   1   5
ATOM      5  C   UNL     1     -26.857   4.815   8.892  1.00  0.00    +0.094 C 
ATOM      6  C   UNL     1     -25.967   5.267   7.995  1.00  0.00    +0.015 C 
BRANCH   6   7
ATOM      7  C   UNL     1     -25.963   6.636   7.463  1.00  0.00    -0.025 A 
ATOM      8  C   UNL     1     -24.743   7.205   7.074  1.00  0.00    +0.009 A 
ATOM      9  C   UNL     1     -27.128   7.413   7.381  1.00  0.00    +0.009 A 
ATOM     10  C   UNL     1     -24.690   8.514   6.587  1.00  0.00    +0.021 A 
ATOM     11  C   UNL     1     -27.077   8.723   6.895  1.00  0.00    +0.021 A 
ATOM     12  C   UNL     1     -25.859   9.267   6.497  1.00  0.00    +0.041 A 
ATOM     13 Cl   UNL     1     -25.794  10.879   5.899  1.00  0.00    -0.084 Cl
ENDBRANCH   6   7
ENDBRANCH   1   5
TORSDOF 3
ENDMDL
MODEL 8
REMARK VINA RESULT:    -5.607      3.755      4.663
REMARK INTER + INTRA:          -6.580
REMARK INTER:                  -6.438
REMARK INTRA:                  -0.142
REMARK UNBOUND:                -0.153
REMARK SMILES O=C(O)C=Cc1ccc(Cl)cc1
REMARK SMILES IDX 2 1 1 2 3 3 4 5 5 6 6 7 7 8 12 9 8 10 11 11 9 12 10 13
REMARK H PARENT 3 4
ROOT
ATOM      1  C   UNL     1     -33.055   6.652   7.784  1.00  0.00    +0.328 C 
ATOM      2  O   UNL     1     -33.954   6.962   7.023  1.00  0.00    -0.247 OA
ENDROOT
BRANCH   1   3
ATOM      3  O   UNL     1     -33.271   5.859   8.844  1.00  0.00    -0.478 OA
ATOM      4  H   UNL     1     -33.823   5.134   8.483  1.00  0.00    +0.297 HD
ENDBRANCH   1   3
BRANCH   1   5
ATOM      5  C   UNL     1     -31.661   7.095   7.641  1.00  0.00    +0.094 C 
ATOM      6  C   UNL     1     -31.309   8.347   7.312  1.00  0.00    +0.015 C 
BRANCH   6   7
ATOM      7  C   UNL     1     -29.918   8.798   7.178  1.00  0.00    -0.025 A 
ATOM      8  C   UNL     1     -29.673  10.118   6.776  1.00  0.00    +0.009 A 
ATOM      9  C   UNL     1     -28.827   7.942   7.386  1.00  0.00    +0.009 A 
ATOM     10  C   UNL     1     -28.364  10.583   6.611  1.00  0.00    +0.021 A 
ATOM     11  C   UNL     1     -27.518   8.404   7.220  1.00  0.00    +0.021 A 
ATOM     12  C   UNL     1     -27.292   9.723   6.836  1.00  0.00    +0.041 A 
ATOM     13 Cl   UNL     1     -25.681  10.293   6.632  1.00  0.00    -0.084 Cl
ENDBRANCH   6   7
ENDBRANCH   1   5
TORSDOF 3
ENDMDL
MODEL 9
REMARK VINA RESULT:    -5.546     10.628     11.939
REMARK INTER + INTRA:          -6.509
REMARK INTER:                  -6.359
REMARK INTRA:                  -0.150
REMARK UNBOUND:                -0.153
REMARK SMILES O=C(O)C=Cc1ccc(Cl)cc1
REMARK SMILES IDX 2 1 1 2 3 3 4 5 5 6 6 7 7 8 12 9 8 10 11 11 9 12 10 13
REMARK H PARENT 3 4
ROOT
ATOM      1  C   UNL     1     -39.008   5.206   9.977  1.00  0.00    +0.328 C 
ATOM      2  O   UNL     1     -39.384   6.312  10.323  1.00  0.00    -0.247 OA
ENDROOT
BRANCH   1   3
ATOM      3  O   UNL     1     -39.860   4.292   9.491  1.00  0.00    -0.478 OA
ATOM      4  H   UNL     1     -39.440   3.437   9.721  1.00  0.00    +0.297 HD
ENDBRANCH   1   3
BRANCH   1   5
ATOM      5  C   UNL     1     -37.613   4.748  10.049  1.00  0.00    +0.094 C 
ATOM      6  C   UNL     1     -37.235   3.609  10.649  1.00  0.00    +0.015 C 
BRANCH   6   7
ATOM      7  C   UNL     1     -35.845   3.140  10.714  1.00  0.00    -0.025 A 
ATOM      8  C   UNL     1     -34.812   4.058  10.480  1.00  0.00    +0.009 A 
ATOM      9  C   UNL     1     -35.515   1.797  10.949  1.00  0.00    +0.009 A 
ATOM     10  C   UNL     1     -33.475   3.649  10.507  1.00  0.00    +0.021 A 
ATOM     11  C   UNL     1     -34.179   1.387  10.976  1.00  0.00    +0.021 A 
ATOM     12  C   UNL     1     -33.164   2.315  10.757  1.00  0.00    +0.041 A 
ATOM     13 Cl   UNL     1     -31.519   1.811  10.789  1.00  0.00    -0.084 Cl
ENDBRANCH   6   7
ENDBRANCH   1   5
TORSDOF 3
ENDMDL
