REMARK SMILES OC[C@@H](O)[C@H](O)C(O)[C@@H](O)[C@H](O)CO
REMARK SMILES IDX 7 1 5 2 3 3 2 4 1 5 4 7 6 9 8 11 9 13 10 14 11 16 12 17
REMARK SMILES IDX 13 19 14 20
REMARK H PARENT 1 6 4 8 6 10 8 12 10 15 12 18 14 21
ROOT
ATOM      1  C   UNL     1      -0.265  -0.839  -0.496  1.00  0.00    +0.177 C 
ENDROOT
BRANCH   1   2
ATOM      2  C   UNL     1       0.598   0.347  -0.983  1.00  0.00    +0.176 C 
BRANCH   2   3
ATOM      3  C   UNL     1       1.927  -0.136  -1.595  1.00  0.00    +0.171 C 
BRANCH   3   4
ATOM      4  C   UNL     1       2.833   1.022  -2.023  1.00  0.00    +0.190 C 
BRANCH   4   5
ATOM      5  O   UNL     1       4.038   0.458  -2.551  1.00  0.00    -0.394 OA
ATOM      6  H   UNL     1       4.600   1.207  -2.824  1.00  0.00    +0.210 HD
ENDBRANCH   4   5
ENDBRANCH   3   4
BRANCH   3   7
ATOM      7  O   UNL     1       2.641  -0.935  -0.629  1.00  0.00    -0.388 OA
ATOM      8  H   UNL     1       3.546  -1.008  -1.004  1.00  0.00    +0.211 HD
ENDBRANCH   3   7
ENDBRANCH   2   3
BRANCH   2   9
ATOM      9  O   UNL     1       0.882   1.217   0.117  1.00  0.00    -0.388 OA
ATOM     10  H   UNL     1       1.357   0.668   0.774  1.00  0.00    +0.211 HD
ENDBRANCH   2   9
ENDBRANCH   1   2
BRANCH   1  11
ATOM     11  O   UNL     1       0.370  -1.493   0.624  1.00  0.00    -0.387 OA
ATOM     12  H   UNL     1       1.297  -1.669   0.338  1.00  0.00    +0.211 HD
ENDBRANCH   1  11
BRANCH   1  13
ATOM     13  C   UNL     1      -1.704  -0.426  -0.102  1.00  0.00    +0.176 C 
BRANCH  13  14
ATOM     14  O   UNL     1      -2.505  -1.625  -0.113  1.00  0.00    -0.388 OA
ATOM     15  H   UNL     1      -2.244  -2.120   0.691  1.00  0.00    +0.211 HD
ENDBRANCH  13  14
BRANCH  13  16
ATOM     16  C   UNL     1      -1.839   0.224   1.291  1.00  0.00    +0.171 C 
BRANCH  16  17
ATOM     17  O   UNL     1      -1.479  -0.721   2.323  1.00  0.00    -0.388 OA
ATOM     18  H   UNL     1      -0.619  -1.105   2.039  1.00  0.00    +0.211 HD
ENDBRANCH  16  17
BRANCH  16  19
ATOM     19  C   UNL     1      -3.280   0.663   1.575  1.00  0.00    +0.190 C 
BRANCH  19  20
ATOM     20  O   UNL     1      -3.341   1.261   2.873  1.00  0.00    -0.394 OA
ATOM     21  H   UNL     1      -2.848   0.644   3.450  1.00  0.00    +0.210 HD
ENDBRANCH  19  20
ENDBRANCH  16  19
ENDBRANCH  13  16
ENDBRANCH   1  13
TORSDOF 13
