MODEL 1
REMARK VINA RESULT:    -7.053      0.000      0.000
REMARK INTER + INTRA:          -8.560
REMARK INTER:                  -8.290
REMARK INTRA:                  -0.270
REMARK UNBOUND:                -0.270
REMARK SMILES CC(C)(C)[C@@H](Br)C(=O)Nc1ccccc1
REMARK SMILES IDX 5 1 6 2 2 3 1 4 3 5 4 6 7 7 8 8 9 9 10 11 11 12 15 13 12 14
REMARK SMILES IDX 14 15 13 16
REMARK H PARENT 9 10
ROOT
ATOM      1  C   UNL     1     -35.730   4.943  10.268  1.00  0.00    +0.152 C 
ATOM      2 Br   UNL     1     -34.026   4.786  11.254  1.00  0.00    -0.078 Br
ENDROOT
BRANCH   1   3
ATOM      3  C   UNL     1     -36.430   3.568  10.074  1.00  0.00    -0.017 C 
ATOM      4  C   UNL     1     -36.605   3.155   8.599  1.00  0.00    +0.012 C 
ATOM      5  C   UNL     1     -37.824   3.606  10.743  1.00  0.00    +0.012 C 
ATOM      6  C   UNL     1     -35.630   2.454  10.793  1.00  0.00    +0.012 C 
ENDBRANCH   1   3
BRANCH   1   7
ATOM      7  C   UNL     1     -35.396   5.764   9.007  1.00  0.00    +0.238 C 
ATOM      8  O   UNL     1     -36.203   6.523   8.481  1.00  0.00    -0.273 OA
ATOM      9  N   UNL     1     -34.089   5.558   8.577  1.00  0.00    -0.325 N 
ATOM     10  H   UNL     1     -33.580   4.812   9.034  1.00  0.00    +0.169 HD
BRANCH   9  11
ATOM     11  C   UNL     1     -33.424   6.185   7.502  1.00  0.00    +0.041 A 
ATOM     12  C   UNL     1     -33.866   5.871   6.210  1.00  0.00    +0.026 A 
ATOM     13  C   UNL     1     -32.362   7.077   7.651  1.00  0.00    +0.026 A 
ATOM     14  C   UNL     1     -33.260   6.443   5.088  1.00  0.00    +0.002 A 
ATOM     15  C   UNL     1     -31.753   7.649   6.528  1.00  0.00    +0.002 A 
ATOM     16  C   UNL     1     -32.202   7.333   5.249  1.00  0.00    +0.000 A 
ENDBRANCH   9  11
ENDBRANCH   1   7
TORSDOF 3
ENDMDL
MODEL 2
REMARK VINA RESULT:    -6.818      1.448      1.741
REMARK INTER + INTRA:          -8.284
REMARK INTER:                  -8.305
REMARK INTRA:                   0.021
REMARK UNBOUND:                -0.270
REMARK SMILES CC(C)(C)[C@@H](Br)C(=O)Nc1ccccc1
REMARK SMILES IDX 5 1 6 2 2 3 1 4 3 5 4 6 7 7 8 8 9 9 10 11 11 12 15 13 12 14
REMARK SMILES IDX 14 15 13 16
REMARK H PARENT 9 10
ROOT
ATOM      1  C   UNL     1     -35.493   4.466  10.205  1.00  0.00    +0.152 C 
ATOM      2 Br   UNL     1     -35.425   2.531  10.595  1.00  0.00    -0.078 Br
ENDROOT
BRANCH   1   3
ATOM      3  C   UNL     1     -36.907   5.068  10.439  1.00  0.00    -0.017 C 
ATOM      4  C   UNL     1     -37.595   5.571   9.156  1.00  0.00    +0.012 C 
ATOM      5  C   UNL     1     -36.801   6.247  11.435  1.00  0.00    +0.012 C 
ATOM      6  C   UNL     1     -37.832   4.018  11.102  1.00  0.00    +0.012 C 
ENDBRANCH   1   3
BRANCH   1   7
ATOM      7  C   UNL     1     -34.869   4.619   8.804  1.00  0.00    +0.238 C 
ATOM      8  O   UNL     1     -34.973   3.758   7.937  1.00  0.00    -0.273 OA
ATOM      9  N   UNL     1     -34.219   5.839   8.648  1.00  0.00    -0.325 N 
ATOM     10  H   UNL     1     -34.108   6.397   9.486  1.00  0.00    +0.169 HD
BRANCH   9  11
ATOM     11  C   UNL     1     -33.594   6.344   7.489  1.00  0.00    +0.041 A 
ATOM     12  C   UNL     1     -34.284   6.193   6.277  1.00  0.00    +0.026 A 
ATOM     13  C   UNL     1     -32.345   6.964   7.478  1.00  0.00    +0.026 A 
ATOM     14  C   UNL     1     -33.734   6.660   5.079  1.00  0.00    +0.002 A 
ATOM     15  C   UNL     1     -31.794   7.430   6.279  1.00  0.00    +0.002 A 
ATOM     16  C   UNL     1     -32.488   7.279   5.082  1.00  0.00    +0.000 A 
ENDBRANCH   9  11
ENDBRANCH   1   7
TORSDOF 3
ENDMDL
MODEL 3
REMARK VINA RESULT:    -6.751      3.003      4.143
REMARK INTER + INTRA:          -8.206
REMARK INTER:                  -8.061
REMARK INTRA:                  -0.144
REMARK UNBOUND:                -0.270
REMARK SMILES CC(C)(C)[C@@H](Br)C(=O)Nc1ccccc1
REMARK SMILES IDX 5 1 6 2 2 3 1 4 3 5 4 6 7 7 8 8 9 9 10 11 11 12 15 13 12 14
REMARK SMILES IDX 14 15 13 16
REMARK H PARENT 9 10
ROOT
ATOM      1  C   UNL     1     -33.236   5.452   7.168  1.00  0.00    +0.152 C 
ATOM      2 Br   UNL     1     -33.839   6.137   5.417  1.00  0.00    -0.078 Br
ENDROOT
BRANCH   1   3
ATOM      3  C   UNL     1     -34.413   4.911   8.030  1.00  0.00    -0.017 C 
ATOM      4  C   UNL     1     -35.459   5.979   8.403  1.00  0.00    +0.012 C 
ATOM      5  C   UNL     1     -33.851   4.295   9.333  1.00  0.00    +0.012 C 
ATOM      6  C   UNL     1     -35.140   3.766   7.283  1.00  0.00    +0.012 C 
ENDBRANCH   1   3
BRANCH   1   7
ATOM      7  C   UNL     1     -32.364   6.574   7.764  1.00  0.00    +0.238 C 
ATOM      8  O   UNL     1     -31.704   6.423   8.787  1.00  0.00    -0.273 OA
ATOM      9  N   UNL     1     -32.401   7.733   6.997  1.00  0.00    -0.325 N 
ATOM     10  H   UNL     1     -33.084   7.754   6.250  1.00  0.00    +0.169 HD
BRANCH   9  11
ATOM     11  C   UNL     1     -31.683   8.930   7.203  1.00  0.00    +0.041 A 
ATOM     12  C   UNL     1     -30.365   8.971   6.727  1.00  0.00    +0.026 A 
ATOM     13  C   UNL     1     -32.197  10.051   7.854  1.00  0.00    +0.026 A 
ATOM     14  C   UNL     1     -29.580  10.116   6.894  1.00  0.00    +0.002 A 
ATOM     15  C   UNL     1     -31.412  11.197   8.022  1.00  0.00    +0.002 A 
ATOM     16  C   UNL     1     -30.106  11.229   7.542  1.00  0.00    +0.000 A 
ENDBRANCH   9  11
ENDBRANCH   1   7
TORSDOF 3
ENDMDL
MODEL 4
REMARK VINA RESULT:    -6.715      1.500      2.244
REMARK INTER + INTRA:          -8.163
REMARK INTER:                  -7.892
REMARK INTRA:                  -0.271
REMARK UNBOUND:                -0.270
REMARK SMILES CC(C)(C)[C@@H](Br)C(=O)Nc1ccccc1
REMARK SMILES IDX 5 1 6 2 2 3 1 4 3 5 4 6 7 7 8 8 9 9 10 11 11 12 15 13 12 14
REMARK SMILES IDX 14 15 13 16
REMARK H PARENT 9 10
ROOT
ATOM      1  C   UNL     1     -36.266   4.136   8.727  1.00  0.00    +0.152 C 
ATOM      2 Br   UNL     1     -38.093   4.721   9.199  1.00  0.00    -0.078 Br
ENDROOT
BRANCH   1   3
ATOM      3  C   UNL     1     -35.598   3.309   9.862  1.00  0.00    -0.017 C 
ATOM      4  C   UNL     1     -34.753   4.152  10.838  1.00  0.00    +0.012 C 
ATOM      5  C   UNL     1     -34.691   2.223   9.237  1.00  0.00    +0.012 C 
ATOM      6  C   UNL     1     -36.675   2.560  10.684  1.00  0.00    +0.012 C 
ENDBRANCH   1   3
BRANCH   1   7
ATOM      7  C   UNL     1     -35.545   5.408   8.244  1.00  0.00    +0.238 C 
ATOM      8  O   UNL     1     -35.907   6.535   8.565  1.00  0.00    -0.273 OA
ATOM      9  N   UNL     1     -34.444   5.118   7.444  1.00  0.00    -0.325 N 
ATOM     10  H   UNL     1     -34.339   4.151   7.163  1.00  0.00    +0.169 HD
BRANCH   9  11
ATOM     11  C   UNL     1     -33.520   6.023   6.882  1.00  0.00    +0.041 A 
ATOM     12  C   UNL     1     -32.525   6.526   7.732  1.00  0.00    +0.026 A 
ATOM     13  C   UNL     1     -33.548   6.449   5.554  1.00  0.00    +0.026 A 
ATOM     14  C   UNL     1     -31.572   7.433   7.258  1.00  0.00    +0.002 A 
ATOM     15  C   UNL     1     -32.595   7.357   5.080  1.00  0.00    +0.002 A 
ATOM     16  C   UNL     1     -31.608   7.848   5.930  1.00  0.00    +0.000 A 
ENDBRANCH   9  11
ENDBRANCH   1   7
TORSDOF 3
ENDMDL
MODEL 5
REMARK VINA RESULT:    -6.595      1.467      5.811
REMARK INTER + INTRA:          -8.022
REMARK INTER:                  -7.720
REMARK INTRA:                  -0.302
REMARK UNBOUND:                -0.270
REMARK SMILES CC(C)(C)[C@@H](Br)C(=O)Nc1ccccc1
REMARK SMILES IDX 5 1 6 2 2 3 1 4 3 5 4 6 7 7 8 8 9 9 10 11 11 12 15 13 12 14
REMARK SMILES IDX 14 15 13 16
REMARK H PARENT 9 10
ROOT
ATOM      1  C   UNL     1     -32.634   6.146   7.531  1.00  0.00    +0.152 C 
ATOM      2 Br   UNL     1     -31.726   5.602   9.199  1.00  0.00    -0.078 Br
ENDROOT
BRANCH   1   3
ATOM      3  C   UNL     1     -32.124   7.515   6.998  1.00  0.00    -0.017 C 
ATOM      4  C   UNL     1     -32.891   8.731   7.553  1.00  0.00    +0.012 C 
ATOM      5  C   UNL     1     -32.225   7.531   5.454  1.00  0.00    +0.012 C 
ATOM      6  C   UNL     1     -30.624   7.695   7.339  1.00  0.00    +0.012 C 
ENDBRANCH   1   3
BRANCH   1   7
ATOM      7  C   UNL     1     -34.141   6.006   7.826  1.00  0.00    +0.238 C 
ATOM      8  O   UNL     1     -35.000   6.171   6.966  1.00  0.00    -0.273 OA
ATOM      9  N   UNL     1     -34.388   5.650   9.148  1.00  0.00    -0.325 N 
ATOM     10  H   UNL     1     -33.592   5.670   9.772  1.00  0.00    +0.169 HD
BRANCH   9  11
ATOM     11  C   UNL     1     -35.633   5.376   9.751  1.00  0.00    +0.041 A 
ATOM     12  C   UNL     1     -35.878   4.048  10.130  1.00  0.00    +0.026 A 
ATOM     13  C   UNL     1     -36.623   6.333   9.977  1.00  0.00    +0.026 A 
ATOM     14  C   UNL     1     -37.088   3.688  10.729  1.00  0.00    +0.002 A 
ATOM     15  C   UNL     1     -37.835   5.972  10.576  1.00  0.00    +0.002 A 
ATOM     16  C   UNL     1     -38.067   4.652  10.952  1.00  0.00    +0.000 A 
ENDBRANCH   9  11
ENDBRANCH   1   7
TORSDOF 3
ENDMDL
MODEL 6
REMARK VINA RESULT:    -6.336      7.578      9.704
REMARK INTER + INTRA:          -7.717
REMARK INTER:                  -7.415
REMARK INTRA:                  -0.302
REMARK UNBOUND:                -0.270
REMARK SMILES CC(C)(C)[C@@H](Br)C(=O)Nc1ccccc1
REMARK SMILES IDX 5 1 6 2 2 3 1 4 3 5 4 6 7 7 8 8 9 9 10 11 11 12 15 13 12 14
REMARK SMILES IDX 14 15 13 16
REMARK H PARENT 9 10
ROOT
ATOM      1  C   UNL     1     -26.115   2.375   9.876  1.00  0.00    +0.152 C 
ATOM      2 Br   UNL     1     -25.442   0.526  10.042  1.00  0.00    -0.078 Br
ENDROOT
BRANCH   1   3
ATOM      3  C   UNL     1     -25.281   3.386  10.714  1.00  0.00    -0.017 C 
ATOM      4  C   UNL     1     -25.911   3.745  12.074  1.00  0.00    +0.012 C 
ATOM      5  C   UNL     1     -25.091   4.689   9.901  1.00  0.00    +0.012 C 
ATOM      6  C   UNL     1     -23.863   2.823  10.975  1.00  0.00    +0.012 C 
ENDBRANCH   1   3
BRANCH   1   7
ATOM      7  C   UNL     1     -27.628   2.284  10.158  1.00  0.00    +0.238 C 
ATOM      8  O   UNL     1     -28.391   3.227   9.979  1.00  0.00    -0.273 OA
ATOM      9  N   UNL     1     -28.005   1.020  10.599  1.00  0.00    -0.325 N 
ATOM     10  H   UNL     1     -27.252   0.379  10.818  1.00  0.00    +0.169 HD
BRANCH   9  11
ATOM     11  C   UNL     1     -29.306   0.558  10.890  1.00  0.00    +0.041 A 
ATOM     12  C   UNL     1     -29.867  -0.367   9.999  1.00  0.00    +0.026 A 
ATOM     13  C   UNL     1     -30.058   0.973  11.990  1.00  0.00    +0.026 A 
ATOM     14  C   UNL     1     -31.153  -0.872  10.209  1.00  0.00    +0.002 A 
ATOM     15  C   UNL     1     -31.346   0.469  12.199  1.00  0.00    +0.002 A 
ATOM     16  C   UNL     1     -31.892  -0.453  11.311  1.00  0.00    +0.000 A 
ENDBRANCH   9  11
ENDBRANCH   1   7
TORSDOF 3
ENDMDL
MODEL 7
REMARK VINA RESULT:    -6.110      7.555      8.303
REMARK INTER + INTRA:          -7.452
REMARK INTER:                  -7.104
REMARK INTRA:                  -0.348
REMARK UNBOUND:                -0.270
REMARK SMILES CC(C)(C)[C@@H](Br)C(=O)Nc1ccccc1
REMARK SMILES IDX 5 1 6 2 2 3 1 4 3 5 4 6 7 7 8 8 9 9 10 11 11 12 15 13 12 14
REMARK SMILES IDX 14 15 13 16
REMARK H PARENT 9 10
ROOT
ATOM      1  C   UNL     1     -28.678   0.220  12.791  1.00  0.00    +0.152 C 
ATOM      2 Br   UNL     1     -28.007  -1.005  11.395  1.00  0.00    -0.078 Br
ENDROOT
BRANCH   1   3
ATOM      3  C   UNL     1     -30.226   0.173  12.926  1.00  0.00    -0.017 C 
ATOM      4  C   UNL     1     -30.973   1.028  11.884  1.00  0.00    +0.012 C 
ATOM      5  C   UNL     1     -30.631   0.653  14.339  1.00  0.00    +0.012 C 
ATOM      6  C   UNL     1     -30.730  -1.286  12.800  1.00  0.00    +0.012 C 
ENDBRANCH   1   3
BRANCH   1   7
ATOM      7  C   UNL     1     -28.024   1.581  12.485  1.00  0.00    +0.238 C 
ATOM      8  O   UNL     1     -27.991   2.496  13.301  1.00  0.00    -0.273 OA
ATOM      9  N   UNL     1     -27.466   1.623  11.211  1.00  0.00    -0.325 N 
ATOM     10  H   UNL     1     -27.678   0.840  10.605  1.00  0.00    +0.169 HD
BRANCH   9  11
ATOM     11  C   UNL     1     -26.738   2.676  10.620  1.00  0.00    +0.041 A 
ATOM     12  C   UNL     1     -27.350   3.355   9.558  1.00  0.00    +0.026 A 
ATOM     13  C   UNL     1     -25.459   3.065  11.019  1.00  0.00    +0.026 A 
ATOM     14  C   UNL     1     -26.696   4.409   8.912  1.00  0.00    +0.002 A 
ATOM     15  C   UNL     1     -24.804   4.119  10.371  1.00  0.00    +0.002 A 
ATOM     16  C   UNL     1     -25.422   4.790   9.320  1.00  0.00    +0.000 A 
ENDBRANCH   9  11
ENDBRANCH   1   7
TORSDOF 3
ENDMDL
MODEL 8
REMARK VINA RESULT:    -5.886      1.590      5.921
REMARK INTER + INTRA:          -7.188
REMARK INTER:                  -6.851
REMARK INTRA:                  -0.337
REMARK UNBOUND:                -0.270
REMARK SMILES CC(C)(C)[C@@H](Br)C(=O)Nc1ccccc1
REMARK SMILES IDX 5 1 6 2 2 3 1 4 3 5 4 6 7 7 8 8 9 9 10 11 11 12 15 13 12 14
REMARK SMILES IDX 14 15 13 16
REMARK H PARENT 9 10
ROOT
ATOM      1  C   UNL     1     -33.403   4.783   7.731  1.00  0.00    +0.152 C 
ATOM      2 Br   UNL     1     -32.568   5.023   9.504  1.00  0.00    -0.078 Br
ENDROOT
BRANCH   1   3
ATOM      3  C   UNL     1     -33.430   6.101   6.906  1.00  0.00    -0.017 C 
ATOM      4  C   UNL     1     -33.464   5.885   5.380  1.00  0.00    +0.012 C 
ATOM      5  C   UNL     1     -32.184   6.948   7.256  1.00  0.00    +0.012 C 
ATOM      6  C   UNL     1     -34.662   6.952   7.298  1.00  0.00    +0.012 C 
ENDBRANCH   1   3
BRANCH   1   7
ATOM      7  C   UNL     1     -34.747   4.080   8.007  1.00  0.00    +0.238 C 
ATOM      8  O   UNL     1     -35.363   3.469   7.140  1.00  0.00    -0.273 OA
ATOM      9  N   UNL     1     -35.140   4.201   9.336  1.00  0.00    -0.325 N 
ATOM     10  H   UNL     1     -34.597   4.836   9.907  1.00  0.00    +0.169 HD
BRANCH   9  11
ATOM     11  C   UNL     1     -36.274   3.636   9.956  1.00  0.00    +0.041 A 
ATOM     12  C   UNL     1     -36.231   2.262  10.230  1.00  0.00    +0.026 A 
ATOM     13  C   UNL     1     -37.421   4.353  10.297  1.00  0.00    +0.026 A 
ATOM     14  C   UNL     1     -37.313   1.620  10.839  1.00  0.00    +0.002 A 
ATOM     15  C   UNL     1     -38.505   3.711  10.905  1.00  0.00    +0.002 A 
ATOM     16  C   UNL     1     -38.451   2.346  11.176  1.00  0.00    +0.000 A 
ENDBRANCH   9  11
ENDBRANCH   1   7
TORSDOF 3
ENDMDL
MODEL 9
REMARK VINA RESULT:    -5.830      3.356      5.260
REMARK INTER + INTRA:          -7.123
REMARK INTER:                  -6.855
REMARK INTRA:                  -0.268
REMARK UNBOUND:                -0.270
REMARK SMILES CC(C)(C)[C@@H](Br)C(=O)Nc1ccccc1
REMARK SMILES IDX 5 1 6 2 2 3 1 4 3 5 4 6 7 7 8 8 9 9 10 11 11 12 15 13 12 14
REMARK SMILES IDX 14 15 13 16
REMARK H PARENT 9 10
ROOT
ATOM      1  C   UNL     1     -36.142   3.953  10.387  1.00  0.00    +0.152 C 
ATOM      2 Br   UNL     1     -36.907   2.164  10.726  1.00  0.00    -0.078 Br
ENDROOT
BRANCH   1   3
ATOM      3  C   UNL     1     -36.500   4.492   8.973  1.00  0.00    -0.017 C 
ATOM      4  C   UNL     1     -35.719   5.757   8.567  1.00  0.00    +0.012 C 
ATOM      5  C   UNL     1     -38.013   4.806   8.914  1.00  0.00    +0.012 C 
ATOM      6  C   UNL     1     -36.238   3.403   7.903  1.00  0.00    +0.012 C 
ENDBRANCH   1   3
BRANCH   1   7
ATOM      7  C   UNL     1     -34.650   3.832  10.754  1.00  0.00    +0.238 C 
ATOM      8  O   UNL     1     -33.996   4.779  11.178  1.00  0.00    -0.273 OA
ATOM      9  N   UNL     1     -34.166   2.540  10.574  1.00  0.00    -0.325 N 
ATOM     10  H   UNL     1     -34.785   1.893  10.102  1.00  0.00    +0.169 HD
BRANCH   9  11
ATOM     11  C   UNL     1     -32.876   2.052  10.866  1.00  0.00    +0.041 A 
ATOM     12  C   UNL     1     -32.706   1.396  12.094  1.00  0.00    +0.026 A 
ATOM     13  C   UNL     1     -31.774   2.192  10.022  1.00  0.00    +0.026 A 
ATOM     14  C   UNL     1     -31.459   0.885  12.465  1.00  0.00    +0.002 A 
ATOM     15  C   UNL     1     -30.525   1.683  10.394  1.00  0.00    +0.002 A 
ATOM     16  C   UNL     1     -30.368   1.030  11.613  1.00  0.00    +0.000 A 
ENDBRANCH   9  11
ENDBRANCH   1   7
TORSDOF 3
ENDMDL
