REMARK SMILES O=C(C=Cc1ccccc1)c1ccc(N=Cc2ccccc2)cc1
REMARK SMILES IDX 11 1 12 2 13 3 14 4 23 5 24 6 2 7 1 8 3 9 4 10 5 11 6 12
REMARK SMILES IDX 10 13 7 14 9 15 8 16 15 17 16 18 17 19 18 20 22 21 19 22
REMARK SMILES IDX 21 23 20 24
REMARK H PARENT
ROOT
ATOM      1  C   UNL     1      -0.228  -1.551  -0.878  1.00  0.00    +0.022 A 
ATOM      2  C   UNL     1       0.389  -0.576  -1.672  1.00  0.00    +0.014 A 
ATOM      3  C   UNL     1       1.779  -0.578  -1.828  1.00  0.00    +0.029 A 
ATOM      4  C   UNL     1       2.568  -1.532  -1.178  1.00  0.00    +0.063 A 
ATOM      5  C   UNL     1       1.948  -2.512  -0.401  1.00  0.00    +0.029 A 
ATOM      6  C   UNL     1       0.560  -2.516  -0.238  1.00  0.00    +0.014 A 
ENDROOT
BRANCH   1   7
ATOM      7  C   UNL     1      -1.702  -1.589  -0.664  1.00  0.00    +0.185 C 
ATOM      8  O   UNL     1      -2.168  -2.170   0.308  1.00  0.00    -0.289 OA
BRANCH   7   9
ATOM      9  C   UNL     1      -2.559  -0.978  -1.718  1.00  0.00    +0.053 C 
ATOM     10  C   UNL     1      -3.682  -0.274  -1.512  1.00  0.00    +0.012 C 
BRANCH  10  11
ATOM     11  C   UNL     1      -4.285   0.088  -0.227  1.00  0.00    -0.026 A 
ATOM     12  C   UNL     1      -4.316   1.434   0.158  1.00  0.00    +0.008 A 
ATOM     13  C   UNL     1      -4.876  -0.871   0.601  1.00  0.00    +0.008 A 
ATOM     14  C   UNL     1      -4.915   1.812   1.361  1.00  0.00    +0.001 A 
ATOM     15  C   UNL     1      -5.473  -0.493   1.806  1.00  0.00    +0.001 A 
ATOM     16  C   UNL     1      -5.493   0.848   2.185  1.00  0.00    +0.000 A 
ENDBRANCH  10  11
ENDBRANCH   7   9
ENDBRANCH   1   7
BRANCH   4  17
ATOM     17  N   UNL     1       3.956  -1.562  -1.341  1.00  0.00    -0.256 NA
ATOM     18  C   UNL     1       4.727  -0.629  -0.864  1.00  0.00    +0.119 C 
BRANCH  18  19
ATOM     19  C   UNL     1       4.394   0.552  -0.041  1.00  0.00    -0.007 A 
ATOM     20  C   UNL     1       3.509   0.486   1.038  1.00  0.00    +0.010 A 
ATOM     21  C   UNL     1       5.051   1.751  -0.336  1.00  0.00    +0.010 A 
ATOM     22  C   UNL     1       3.252   1.630   1.795  1.00  0.00    +0.001 A 
ATOM     23  C   UNL     1       4.792   2.892   0.425  1.00  0.00    +0.001 A 
ATOM     24  C   UNL     1       3.890   2.832   1.487  1.00  0.00    +0.000 A 
ENDBRANCH  18  19
ENDBRANCH   4  17
TORSDOF 5
