MODEL 1
REMARK VINA RESULT:    -9.087      0.000      0.000
REMARK INTER + INTRA:          -9.668
REMARK INTER:                  -9.618
REMARK INTRA:                  -0.050
REMARK UNBOUND:                -0.050
REMARK SMILES O=[N+]([O-])c1ccc2c3c(cccc13)CC2
REMARK SMILES IDX 3 1 2 2 1 3 4 4 13 5 5 6 12 7 8 8 6 9 11 10 7 11 9 12 10 13
REMARK SMILES IDX 15 14 14 15
REMARK H PARENT
ROOT
ATOM      1  O   UNL     1     -25.274   8.482   5.388  1.00  0.00    -0.258 OA
ATOM      2  N   UNL     1     -25.694   8.684   6.536  1.00  0.00    +0.063 N 
ATOM      3  O   UNL     1     -25.017   8.588   7.570  1.00  0.00    -0.258 OA
ENDROOT
BRANCH   2   4
ATOM      4  C   UNL     1     -27.081   9.096   6.689  1.00  0.00    +0.277 A 
ATOM      5  C   UNL     1     -27.508  10.372   6.232  1.00  0.00    +0.060 A 
ATOM      6  C   UNL     1     -27.972   8.178   7.297  1.00  0.00    +0.086 A 
ATOM      7  C   UNL     1     -26.796  11.419   5.584  1.00  0.00    +0.016 A 
ATOM      8  C   UNL     1     -28.866  10.629   6.448  1.00  0.00    -0.005 A 
ATOM      9  C   UNL     1     -29.318   8.518   7.475  1.00  0.00    +0.011 A 
ATOM     10  C   UNL     1     -27.443  12.614   5.214  1.00  0.00    +0.001 A 
ATOM     11  C   UNL     1     -29.751   9.761   7.042  1.00  0.00    -0.039 A 
ATOM     12  C   UNL     1     -29.512  11.787   6.092  1.00  0.00    -0.039 A 
ATOM     13  C   UNL     1     -28.808  12.802   5.468  1.00  0.00    +0.004 A 
ATOM     14  C   UNL     1     -31.131  10.350   7.116  1.00  0.00    +0.041 C 
ATOM     15  C   UNL     1     -30.965  11.745   6.466  1.00  0.00    +0.041 C 
ENDBRANCH   2   4
TORSDOF 1
ENDMDL
MODEL 2
REMARK VINA RESULT:    -8.836      3.176      4.828
REMARK INTER + INTRA:          -9.402
REMARK INTER:                  -9.351
REMARK INTRA:                  -0.051
REMARK UNBOUND:                -0.050
REMARK SMILES O=[N+]([O-])c1ccc2c3c(cccc13)CC2
REMARK SMILES IDX 3 1 2 2 1 3 4 4 13 5 5 6 12 7 8 8 6 9 11 10 7 11 9 12 10 13
REMARK SMILES IDX 15 14 14 15
REMARK H PARENT
ROOT
ATOM      1  O   UNL     1     -32.160  10.493   8.453  1.00  0.00    -0.258 OA
ATOM      2  N   UNL     1     -31.689   9.938   7.450  1.00  0.00    +0.063 N 
ATOM      3  O   UNL     1     -32.220   8.996   6.843  1.00  0.00    -0.258 OA
ENDROOT
BRANCH   2   4
ATOM      4  C   UNL     1     -30.433  10.444   6.920  1.00  0.00    +0.277 A 
ATOM      5  C   UNL     1     -29.254   9.654   6.986  1.00  0.00    +0.060 A 
ATOM      6  C   UNL     1     -30.442  11.734   6.337  1.00  0.00    +0.086 A 
ATOM      7  C   UNL     1     -29.032   8.347   7.499  1.00  0.00    +0.016 A 
ATOM      8  C   UNL     1     -28.124  10.271   6.438  1.00  0.00    -0.005 A 
ATOM      9  C   UNL     1     -29.264  12.278   5.811  1.00  0.00    +0.011 A 
ATOM     10  C   UNL     1     -27.754   7.756   7.450  1.00  0.00    +0.001 A 
ATOM     11  C   UNL     1     -28.102  11.524   5.873  1.00  0.00    -0.039 A 
ATOM     12  C   UNL     1     -26.873   9.710   6.382  1.00  0.00    -0.039 A 
ATOM     13  C   UNL     1     -26.667   8.439   6.890  1.00  0.00    +0.004 A 
ATOM     14  C   UNL     1     -26.728  11.880   5.381  1.00  0.00    +0.041 C 
ATOM     15  C   UNL     1     -25.882  10.633   5.734  1.00  0.00    +0.041 C 
ENDBRANCH   2   4
TORSDOF 1
ENDMDL
MODEL 3
REMARK VINA RESULT:    -8.635      1.957      3.272
REMARK INTER + INTRA:          -9.190
REMARK INTER:                  -9.456
REMARK INTRA:                   0.266
REMARK UNBOUND:                -0.050
REMARK SMILES O=[N+]([O-])c1ccc2c3c(cccc13)CC2
REMARK SMILES IDX 3 1 2 2 1 3 4 4 13 5 5 6 12 7 8 8 6 9 11 10 7 11 9 12 10 13
REMARK SMILES IDX 15 14 14 15
REMARK H PARENT
ROOT
ATOM      1  O   UNL     1     -29.870   7.203   7.820  1.00  0.00    -0.258 OA
ATOM      2  N   UNL     1     -28.685   7.499   8.023  1.00  0.00    +0.063 N 
ATOM      3  O   UNL     1     -27.927   6.907   8.807  1.00  0.00    -0.258 OA
ENDROOT
BRANCH   2   4
ATOM      4  C   UNL     1     -28.120   8.605   7.266  1.00  0.00    +0.277 A 
ATOM      5  C   UNL     1     -28.906   9.753   6.976  1.00  0.00    +0.060 A 
ATOM      6  C   UNL     1     -26.772   8.491   6.848  1.00  0.00    +0.086 A 
ATOM      7  C   UNL     1     -30.247  10.078   7.316  1.00  0.00    +0.016 A 
ATOM      8  C   UNL     1     -28.231  10.733   6.241  1.00  0.00    -0.005 A 
ATOM      9  C   UNL     1     -26.173   9.521   6.114  1.00  0.00    +0.011 A 
ATOM     10  C   UNL     1     -30.822  11.300   6.914  1.00  0.00    +0.001 A 
ATOM     11  C   UNL     1     -26.927  10.646   5.815  1.00  0.00    -0.039 A 
ATOM     12  C   UNL     1     -28.774  11.929   5.843  1.00  0.00    -0.039 A 
ATOM     13  C   UNL     1     -30.083  12.232   6.173  1.00  0.00    +0.004 A 
ATOM     14  C   UNL     1     -26.514  11.873   5.053  1.00  0.00    +0.041 C 
ATOM     15  C   UNL     1     -27.787  12.754   5.069  1.00  0.00    +0.041 C 
ENDBRANCH   2   4
TORSDOF 1
ENDMDL
MODEL 4
REMARK VINA RESULT:    -8.510      3.217      4.122
REMARK INTER + INTRA:          -9.057
REMARK INTER:                  -9.084
REMARK INTRA:                   0.027
REMARK UNBOUND:                -0.050
REMARK SMILES O=[N+]([O-])c1ccc2c3c(cccc13)CC2
REMARK SMILES IDX 3 1 2 2 1 3 4 4 13 5 5 6 12 7 8 8 6 9 11 10 7 11 9 12 10 13
REMARK SMILES IDX 15 14 14 15
REMARK H PARENT
ROOT
ATOM      1  O   UNL     1     -32.110  10.442   8.337  1.00  0.00    -0.258 OA
ATOM      2  N   UNL     1     -31.770   9.521   7.583  1.00  0.00    +0.063 N 
ATOM      3  O   UNL     1     -32.547   8.720   7.040  1.00  0.00    -0.258 OA
ENDROOT
BRANCH   2   4
ATOM      4  C   UNL     1     -30.355   9.378   7.280  1.00  0.00    +0.277 A 
ATOM      5  C   UNL     1     -29.640  10.439   6.661  1.00  0.00    +0.060 A 
ATOM      6  C   UNL     1     -29.731   8.156   7.632  1.00  0.00    +0.086 A 
ATOM      7  C   UNL     1     -30.059  11.734   6.252  1.00  0.00    +0.016 A 
ATOM      8  C   UNL     1     -28.289  10.157   6.430  1.00  0.00    -0.005 A 
ATOM      9  C   UNL     1     -28.371   7.957   7.365  1.00  0.00    +0.011 A 
ATOM     10  C   UNL     1     -29.155  12.633   5.654  1.00  0.00    +0.001 A 
ATOM     11  C   UNL     1     -27.660   8.978   6.755  1.00  0.00    -0.039 A 
ATOM     12  C   UNL     1     -27.395  11.021   5.850  1.00  0.00    -0.039 A 
ATOM     13  C   UNL     1     -27.816  12.277   5.450  1.00  0.00    +0.004 A 
ATOM     14  C   UNL     1     -26.208   9.008   6.372  1.00  0.00    +0.041 C 
ATOM     15  C   UNL     1     -26.027  10.412   5.746  1.00  0.00    +0.041 C 
ENDBRANCH   2   4
TORSDOF 1
ENDMDL
MODEL 5
REMARK VINA RESULT:    -8.013      2.556      3.733
REMARK INTER + INTRA:          -8.532
REMARK INTER:                  -8.714
REMARK INTRA:                   0.182
REMARK UNBOUND:                -0.050
REMARK SMILES O=[N+]([O-])c1ccc2c3c(cccc13)CC2
REMARK SMILES IDX 3 1 2 2 1 3 4 4 13 5 5 6 12 7 8 8 6 9 11 10 7 11 9 12 10 13
REMARK SMILES IDX 15 14 14 15
REMARK H PARENT
ROOT
ATOM      1  O   UNL     1     -31.521   7.380   6.973  1.00  0.00    -0.258 OA
ATOM      2  N   UNL     1     -30.462   7.841   7.419  1.00  0.00    +0.063 N 
ATOM      3  O   UNL     1     -29.719   7.266   8.228  1.00  0.00    -0.258 OA
ENDROOT
BRANCH   2   4
ATOM      4  C   UNL     1     -30.033   9.145   6.939  1.00  0.00    +0.277 A 
ATOM      5  C   UNL     1     -28.691   9.352   6.519  1.00  0.00    +0.060 A 
ATOM      6  C   UNL     1     -31.000  10.179   6.901  1.00  0.00    +0.086 A 
ATOM      7  C   UNL     1     -27.585   8.462   6.453  1.00  0.00    +0.016 A 
ATOM      8  C   UNL     1     -28.425  10.655   6.084  1.00  0.00    -0.005 A 
ATOM      9  C   UNL     1     -30.648  11.457   6.451  1.00  0.00    +0.011 A 
ATOM     10  C   UNL     1     -26.329   8.899   5.990  1.00  0.00    +0.001 A 
ATOM     11  C   UNL     1     -29.342  11.678   6.044  1.00  0.00    -0.039 A 
ATOM     12  C   UNL     1     -27.208  11.097   5.629  1.00  0.00    -0.039 A 
ATOM     13  C   UNL     1     -26.137  10.224   5.576  1.00  0.00    +0.004 A 
ATOM     14  C   UNL     1     -28.727  12.946   5.523  1.00  0.00    +0.041 C 
ATOM     15  C   UNL     1     -27.258  12.547   5.241  1.00  0.00    +0.041 C 
ENDBRANCH   2   4
TORSDOF 1
ENDMDL
MODEL 6
REMARK VINA RESULT:    -7.778      1.911      3.519
REMARK INTER + INTRA:          -8.283
REMARK INTER:                  -8.698
REMARK INTRA:                   0.415
REMARK UNBOUND:                -0.050
REMARK SMILES O=[N+]([O-])c1ccc2c3c(cccc13)CC2
REMARK SMILES IDX 3 1 2 2 1 3 4 4 13 5 5 6 12 7 8 8 6 9 11 10 7 11 9 12 10 13
REMARK SMILES IDX 15 14 14 15
REMARK H PARENT
ROOT
ATOM      1  O   UNL     1     -26.452   5.369   7.837  1.00  0.00    -0.258 OA
ATOM      2  N   UNL     1     -27.172   6.358   8.027  1.00  0.00    +0.063 N 
ATOM      3  O   UNL     1     -28.182   6.376   8.745  1.00  0.00    -0.258 OA
ENDROOT
BRANCH   2   4
ATOM      4  C   UNL     1     -26.793   7.608   7.386  1.00  0.00    +0.277 A 
ATOM      5  C   UNL     1     -27.769   8.604   7.117  1.00  0.00    +0.060 A 
ATOM      6  C   UNL     1     -25.427   7.785   7.057  1.00  0.00    +0.086 A 
ATOM      7  C   UNL     1     -29.166   8.639   7.382  1.00  0.00    +0.016 A 
ATOM      8  C   UNL     1     -27.258   9.749   6.497  1.00  0.00    -0.005 A 
ATOM      9  C   UNL     1     -25.000   8.965   6.437  1.00  0.00    +0.011 A 
ATOM     10  C   UNL     1     -29.943   9.757   7.021  1.00  0.00    +0.001 A 
ATOM     11  C   UNL     1     -25.940   9.945   6.160  1.00  0.00    -0.039 A 
ATOM     12  C   UNL     1     -28.001  10.847   6.141  1.00  0.00    -0.039 A 
ATOM     13  C   UNL     1     -29.361  10.868   6.397  1.00  0.00    +0.004 A 
ATOM     14  C   UNL     1     -25.733  11.284   5.511  1.00  0.00    +0.041 C 
ATOM     15  C   UNL     1     -27.152  11.903   5.495  1.00  0.00    +0.041 C 
ENDBRANCH   2   4
TORSDOF 1
ENDMDL
MODEL 7
REMARK VINA RESULT:    -7.689      1.797      2.624
REMARK INTER + INTRA:          -8.188
REMARK INTER:                  -8.115
REMARK INTRA:                  -0.073
REMARK UNBOUND:                -0.050
REMARK SMILES O=[N+]([O-])c1ccc2c3c(cccc13)CC2
REMARK SMILES IDX 3 1 2 2 1 3 4 4 13 5 5 6 12 7 8 8 6 9 11 10 7 11 9 12 10 13
REMARK SMILES IDX 15 14 14 15
REMARK H PARENT
ROOT
ATOM      1  O   UNL     1     -25.231   5.869   9.046  1.00  0.00    -0.258 OA
ATOM      2  N   UNL     1     -25.655   6.044   7.895  1.00  0.00    +0.063 N 
ATOM      3  O   UNL     1     -25.224   5.472   6.883  1.00  0.00    -0.258 OA
ENDROOT
BRANCH   2   4
ATOM      4  C   UNL     1     -26.765   6.966   7.712  1.00  0.00    +0.277 A 
ATOM      5  C   UNL     1     -26.560   8.223   7.080  1.00  0.00    +0.060 A 
ATOM      6  C   UNL     1     -28.038   6.557   8.177  1.00  0.00    +0.086 A 
ATOM      7  C   UNL     1     -25.390   8.811   6.528  1.00  0.00    +0.016 A 
ATOM      8  C   UNL     1     -27.717   9.002   6.976  1.00  0.00    -0.005 A 
ATOM      9  C   UNL     1     -29.145   7.401   8.032  1.00  0.00    +0.011 A 
ATOM     10  C   UNL     1     -25.430  10.090   5.939  1.00  0.00    +0.001 A 
ATOM     11  C   UNL     1     -28.963   8.634   7.424  1.00  0.00    -0.039 A 
ATOM     12  C   UNL     1     -27.774  10.248   6.404  1.00  0.00    -0.039 A 
ATOM     13  C   UNL     1     -26.627  10.815   5.876  1.00  0.00    +0.004 A 
ATOM     14  C   UNL     1     -29.982   9.703   7.152  1.00  0.00    +0.041 C 
ATOM     15  C   UNL     1     -29.163  10.815   6.454  1.00  0.00    +0.041 C 
ENDBRANCH   2   4
TORSDOF 1
ENDMDL
MODEL 8
REMARK VINA RESULT:    -7.114      4.807      6.306
REMARK INTER + INTRA:          -7.580
REMARK INTER:                  -7.551
REMARK INTRA:                  -0.029
REMARK UNBOUND:                -0.050
REMARK SMILES O=[N+]([O-])c1ccc2c3c(cccc13)CC2
REMARK SMILES IDX 3 1 2 2 1 3 4 4 13 5 5 6 12 7 8 8 6 9 11 10 7 11 9 12 10 13
REMARK SMILES IDX 15 14 14 15
REMARK H PARENT
ROOT
ATOM      1  O   UNL     1     -30.620   9.531   7.195  1.00  0.00    -0.258 OA
ATOM      2  N   UNL     1     -30.187   8.378   7.317  1.00  0.00    +0.063 N 
ATOM      3  O   UNL     1     -28.992   8.055   7.245  1.00  0.00    -0.258 OA
ENDROOT
BRANCH   2   4
ATOM      4  C   UNL     1     -31.143   7.318   7.596  1.00  0.00    +0.277 A 
ATOM      5  C   UNL     1     -32.136   6.974   6.640  1.00  0.00    +0.060 A 
ATOM      6  C   UNL     1     -31.033   6.650   8.840  1.00  0.00    +0.086 A 
ATOM      7  C   UNL     1     -32.404   7.490   5.343  1.00  0.00    +0.016 A 
ATOM      8  C   UNL     1     -32.984   5.938   7.048  1.00  0.00    -0.005 A 
ATOM      9  C   UNL     1     -31.926   5.623   9.169  1.00  0.00    +0.011 A 
ATOM     10  C   UNL     1     -33.459   6.979   4.563  1.00  0.00    +0.001 A 
ATOM     11  C   UNL     1     -32.906   5.279   8.251  1.00  0.00    -0.039 A 
ATOM     12  C   UNL     1     -34.015   5.428   6.300  1.00  0.00    -0.039 A 
ATOM     13  C   UNL     1     -34.271   5.943   5.041  1.00  0.00    +0.004 A 
ATOM     14  C   UNL     1     -33.966   4.221   8.367  1.00  0.00    +0.041 C 
ATOM     15  C   UNL     1     -34.732   4.326   7.026  1.00  0.00    +0.041 C 
ENDBRANCH   2   4
TORSDOF 1
ENDMDL
MODEL 9
REMARK VINA RESULT:    -7.067     10.662     11.392
REMARK INTER + INTRA:          -7.530
REMARK INTER:                  -7.468
REMARK INTRA:                  -0.062
REMARK UNBOUND:                -0.050
REMARK SMILES O=[N+]([O-])c1ccc2c3c(cccc13)CC2
REMARK SMILES IDX 3 1 2 2 1 3 4 4 13 5 5 6 12 7 8 8 6 9 11 10 7 11 9 12 10 13
REMARK SMILES IDX 15 14 14 15
REMARK H PARENT
ROOT
ATOM      1  O   UNL     1     -26.227   1.331   8.758  1.00  0.00    -0.258 OA
ATOM      2  N   UNL     1     -26.545   0.340   9.429  1.00  0.00    +0.063 N 
ATOM      3  O   UNL     1     -26.287  -0.835   9.131  1.00  0.00    -0.258 OA
ENDROOT
BRANCH   2   4
ATOM      4  C   UNL     1     -27.250   0.566  10.682  1.00  0.00    +0.277 A 
ATOM      5  C   UNL     1     -28.614   0.193  10.817  1.00  0.00    +0.060 A 
ATOM      6  C   UNL     1     -26.522   1.157  11.743  1.00  0.00    +0.086 A 
ATOM      7  C   UNL     1     -29.510  -0.424   9.902  1.00  0.00    +0.016 A 
ATOM      8  C   UNL     1     -29.158   0.472  12.076  1.00  0.00    -0.005 A 
ATOM      9  C   UNL     1     -27.145   1.402  12.973  1.00  0.00    +0.011 A 
ATOM     10  C   UNL     1     -30.840  -0.707  10.269  1.00  0.00    +0.001 A 
ATOM     11  C   UNL     1     -28.478   1.051  13.121  1.00  0.00    -0.039 A 
ATOM     12  C   UNL     1     -30.451   0.202  12.449  1.00  0.00    -0.039 A 
ATOM     13  C   UNL     1     -31.316  -0.393  11.548  1.00  0.00    +0.004 A 
ATOM     14  C   UNL     1     -29.358   1.207  14.329  1.00  0.00    +0.041 C 
ATOM     15  C   UNL     1     -30.716   0.626  13.865  1.00  0.00    +0.041 C 
ENDBRANCH   2   4
TORSDOF 1
ENDMDL
