MODEL 1
REMARK VINA RESULT:    -6.561      0.000      0.000
REMARK INTER + INTRA:          -8.699
REMARK INTER:                  -8.287
REMARK INTRA:                  -0.412
REMARK UNBOUND:                -0.412
REMARK SMILES CC(C)O[C@@H](C(=O)O)c1ccccc1
REMARK SMILES IDX 5 1 4 2 2 3 1 4 3 5 6 6 7 7 8 8 9 10 10 11 14 12 11 13 13 14
REMARK SMILES IDX 12 15
REMARK H PARENT 8 9
ROOT
ATOM      1  C   UNL     1     -31.171   8.431   7.382  1.00  0.00    +0.258 C 
ENDROOT
BRANCH   1   2
ATOM      2  O   UNL     1     -29.975   8.310   6.605  1.00  0.00    -0.359 OA
BRANCH   2   3
ATOM      3  C   UNL     1     -28.770   8.620   7.306  1.00  0.00    +0.113 C 
ATOM      4  C   UNL     1     -27.652   9.015   6.346  1.00  0.00    +0.038 C 
ATOM      5  C   UNL     1     -28.378   7.371   8.087  1.00  0.00    +0.038 C 
ENDBRANCH   2   3
ENDBRANCH   1   2
BRANCH   1   6
ATOM      6  C   UNL     1     -31.744   9.859   7.347  1.00  0.00    +0.337 C 
ATOM      7  O   UNL     1     -31.290  10.830   6.761  1.00  0.00    -0.249 OA
BRANCH   6   8
ATOM      8  O   UNL     1     -32.856  10.004   8.105  1.00  0.00    -0.479 OA
ATOM      9  H   UNL     1     -33.115  10.938   7.954  1.00  0.00    +0.296 HD
ENDBRANCH   6   8
ENDBRANCH   1   6
BRANCH   1  10
ATOM     10  C   UNL     1     -32.177   7.425   6.845  1.00  0.00    -0.008 A 
ATOM     11  C   UNL     1     -32.546   7.443   5.491  1.00  0.00    +0.007 A 
ATOM     12  C   UNL     1     -32.732   6.441   7.681  1.00  0.00    +0.007 A 
ATOM     13  C   UNL     1     -33.454   6.507   4.989  1.00  0.00    +0.000 A 
ATOM     14  C   UNL     1     -33.639   5.509   7.178  1.00  0.00    +0.000 A 
ATOM     15  C   UNL     1     -34.000   5.542   5.832  1.00  0.00    +0.000 A 
ENDBRANCH   1  10
TORSDOF 5
ENDMDL
MODEL 2
REMARK VINA RESULT:    -6.269      3.919      6.149
REMARK INTER + INTRA:          -8.330
REMARK INTER:                  -8.025
REMARK INTRA:                  -0.304
REMARK UNBOUND:                -0.412
REMARK SMILES CC(C)O[C@@H](C(=O)O)c1ccccc1
REMARK SMILES IDX 5 1 4 2 2 3 1 4 3 5 6 6 7 7 8 8 9 10 10 11 14 12 11 13 13 14
REMARK SMILES IDX 12 15
REMARK H PARENT 8 9
ROOT
ATOM      1  C   UNL     1     -34.549   4.598   8.539  1.00  0.00    +0.258 C 
ENDROOT
BRANCH   1   2
ATOM      2  O   UNL     1     -35.323   5.474   9.365  1.00  0.00    -0.359 OA
BRANCH   2   3
ATOM      3  C   UNL     1     -35.544   5.004  10.696  1.00  0.00    +0.113 C 
ATOM      4  C   UNL     1     -36.540   5.887  11.441  1.00  0.00    +0.038 C 
ATOM      5  C   UNL     1     -34.193   5.020  11.402  1.00  0.00    +0.038 C 
ENDBRANCH   2   3
ENDBRANCH   1   2
BRANCH   1   6
ATOM      6  C   UNL     1     -35.413   3.511   7.877  1.00  0.00    +0.337 C 
ATOM      7  O   UNL     1     -36.632   3.468   7.805  1.00  0.00    -0.249 OA
BRANCH   6   8
ATOM      8  O   UNL     1     -34.685   2.487   7.371  1.00  0.00    -0.479 OA
ATOM      9  H   UNL     1     -33.843   2.536   7.873  1.00  0.00    +0.296 HD
ENDBRANCH   6   8
ENDBRANCH   1   6
BRANCH   1  10
ATOM     10  C   UNL     1     -33.844   5.449   7.493  1.00  0.00    -0.008 A 
ATOM     11  C   UNL     1     -34.311   5.478   6.169  1.00  0.00    +0.007 A 
ATOM     12  C   UNL     1     -32.738   6.243   7.834  1.00  0.00    +0.007 A 
ATOM     13  C   UNL     1     -33.680   6.273   5.210  1.00  0.00    +0.000 A 
ATOM     14  C   UNL     1     -32.108   7.036   6.874  1.00  0.00    +0.000 A 
ATOM     15  C   UNL     1     -32.579   7.051   5.563  1.00  0.00    +0.000 A 
ENDBRANCH   1  10
TORSDOF 5
ENDMDL
MODEL 3
REMARK VINA RESULT:    -6.242      3.338      5.421
REMARK INTER + INTRA:          -8.296
REMARK INTER:                  -7.862
REMARK INTRA:                  -0.434
REMARK UNBOUND:                -0.412
REMARK SMILES CC(C)O[C@@H](C(=O)O)c1ccccc1
REMARK SMILES IDX 5 1 4 2 2 3 1 4 3 5 6 6 7 7 8 8 9 10 10 11 14 12 11 13 13 14
REMARK SMILES IDX 12 15
REMARK H PARENT 8 9
ROOT
ATOM      1  C   UNL     1     -34.214   4.877   8.305  1.00  0.00    +0.258 C 
ENDROOT
BRANCH   1   2
ATOM      2  O   UNL     1     -33.430   4.922   9.502  1.00  0.00    -0.359 OA
BRANCH   2   3
ATOM      3  C   UNL     1     -34.025   4.282  10.632  1.00  0.00    +0.113 C 
ATOM      4  C   UNL     1     -33.999   5.185  11.862  1.00  0.00    +0.038 C 
ATOM      5  C   UNL     1     -33.224   3.012  10.894  1.00  0.00    +0.038 C 
ENDBRANCH   2   3
ENDBRANCH   1   2
BRANCH   1   6
ATOM      6  C   UNL     1     -35.674   5.293   8.552  1.00  0.00    +0.337 C 
ATOM      7  O   UNL     1     -36.670   4.588   8.495  1.00  0.00    -0.249 OA
BRANCH   6   8
ATOM      8  O   UNL     1     -35.814   6.614   8.816  1.00  0.00    -0.479 OA
ATOM      9  H   UNL     1     -36.492   6.906   8.171  1.00  0.00    +0.296 HD
ENDBRANCH   6   8
ENDBRANCH   1   6
BRANCH   1  10
ATOM     10  C   UNL     1     -33.552   5.788   7.282  1.00  0.00    -0.008 A 
ATOM     11  C   UNL     1     -32.457   6.588   7.646  1.00  0.00    +0.007 A 
ATOM     12  C   UNL     1     -33.997   5.824   5.951  1.00  0.00    +0.007 A 
ATOM     13  C   UNL     1     -31.833   7.409   6.705  1.00  0.00    +0.000 A 
ATOM     14  C   UNL     1     -33.373   6.646   5.013  1.00  0.00    +0.000 A 
ATOM     15  C   UNL     1     -32.291   7.438   5.390  1.00  0.00    +0.000 A 
ENDBRANCH   1  10
TORSDOF 5
ENDMDL
MODEL 4
REMARK VINA RESULT:    -6.168      3.909      6.413
REMARK INTER + INTRA:          -8.203
REMARK INTER:                  -7.794
REMARK INTRA:                  -0.409
REMARK UNBOUND:                -0.412
REMARK SMILES CC(C)O[C@@H](C(=O)O)c1ccccc1
REMARK SMILES IDX 5 1 4 2 2 3 1 4 3 5 6 6 7 7 8 8 9 10 10 11 14 12 11 13 13 14
REMARK SMILES IDX 12 15
REMARK H PARENT 8 9
ROOT
ATOM      1  C   UNL     1     -34.533   4.623   8.563  1.00  0.00    +0.258 C 
ENDROOT
BRANCH   1   2
ATOM      2  O   UNL     1     -35.944   4.852   8.481  1.00  0.00    -0.359 OA
BRANCH   2   3
ATOM      3  C   UNL     1     -36.458   5.777   9.441  1.00  0.00    +0.113 C 
ATOM      4  C   UNL     1     -36.098   5.363  10.864  1.00  0.00    +0.038 C 
ATOM      5  C   UNL     1     -37.972   5.802   9.265  1.00  0.00    +0.038 C 
ENDBRANCH   2   3
ENDBRANCH   1   2
BRANCH   1   6
ATOM      6  C   UNL     1     -34.178   3.134   8.405  1.00  0.00    +0.337 C 
ATOM      7  O   UNL     1     -33.221   2.541   8.880  1.00  0.00    -0.249 OA
BRANCH   6   8
ATOM      8  O   UNL     1     -35.037   2.465   7.600  1.00  0.00    -0.479 OA
ATOM      9  H   UNL     1     -34.536   2.366   6.764  1.00  0.00    +0.296 HD
ENDBRANCH   6   8
ENDBRANCH   1   6
BRANCH   1  10
ATOM     10  C   UNL     1     -33.863   5.463   7.488  1.00  0.00    -0.008 A 
ATOM     11  C   UNL     1     -32.746   6.255   7.798  1.00  0.00    +0.007 A 
ATOM     12  C   UNL     1     -34.323   5.440   6.161  1.00  0.00    +0.007 A 
ATOM     13  C   UNL     1     -32.115   7.012   6.809  1.00  0.00    +0.000 A 
ATOM     14  C   UNL     1     -33.691   6.197   5.175  1.00  0.00    +0.000 A 
ATOM     15  C   UNL     1     -32.587   6.983   5.499  1.00  0.00    +0.000 A 
ENDBRANCH   1  10
TORSDOF 5
ENDMDL
MODEL 5
REMARK VINA RESULT:    -6.156      2.320      4.817
REMARK INTER + INTRA:          -8.188
REMARK INTER:                  -7.873
REMARK INTRA:                  -0.315
REMARK UNBOUND:                -0.412
REMARK SMILES CC(C)O[C@@H](C(=O)O)c1ccccc1
REMARK SMILES IDX 5 1 4 2 2 3 1 4 3 5 6 6 7 7 8 8 9 10 10 11 14 12 11 13 13 14
REMARK SMILES IDX 12 15
REMARK H PARENT 8 9
ROOT
ATOM      1  C   UNL     1     -29.802   8.934   7.356  1.00  0.00    +0.258 C 
ENDROOT
BRANCH   1   2
ATOM      2  O   UNL     1     -29.801  10.013   6.415  1.00  0.00    -0.359 OA
BRANCH   2   3
ATOM      3  C   UNL     1     -29.506  11.295   6.972  1.00  0.00    +0.113 C 
ATOM      4  C   UNL     1     -30.716  11.882   7.693  1.00  0.00    +0.038 C 
ATOM      5  C   UNL     1     -29.093  12.196   5.814  1.00  0.00    +0.038 C 
ENDBRANCH   2   3
ENDBRANCH   1   2
BRANCH   1   6
ATOM      6  C   UNL     1     -30.975   7.966   7.127  1.00  0.00    +0.337 C 
ATOM      7  O   UNL     1     -31.567   7.301   7.964  1.00  0.00    -0.249 OA
BRANCH   6   8
ATOM      8  O   UNL     1     -31.320   7.845   5.823  1.00  0.00    -0.479 OA
ATOM      9  H   UNL     1     -30.628   8.360   5.356  1.00  0.00    +0.296 HD
ENDBRANCH   6   8
ENDBRANCH   1   6
BRANCH   1  10
ATOM     10  C   UNL     1     -28.467   8.214   7.237  1.00  0.00    -0.008 A 
ATOM     11  C   UNL     1     -27.527   8.616   6.276  1.00  0.00    +0.007 A 
ATOM     12  C   UNL     1     -28.136   7.159   8.103  1.00  0.00    +0.007 A 
ATOM     13  C   UNL     1     -26.292   7.971   6.177  1.00  0.00    +0.000 A 
ATOM     14  C   UNL     1     -26.902   6.516   8.002  1.00  0.00    +0.000 A 
ATOM     15  C   UNL     1     -25.981   6.922   7.040  1.00  0.00    +0.000 A 
ENDBRANCH   1  10
TORSDOF 5
ENDMDL
MODEL 6
REMARK VINA RESULT:    -6.125      2.157      4.868
REMARK INTER + INTRA:          -8.149
REMARK INTER:                  -7.956
REMARK INTRA:                  -0.193
REMARK UNBOUND:                -0.412
REMARK SMILES CC(C)O[C@@H](C(=O)O)c1ccccc1
REMARK SMILES IDX 5 1 4 2 2 3 1 4 3 5 6 6 7 7 8 8 9 10 10 11 14 12 11 13 13 14
REMARK SMILES IDX 12 15
REMARK H PARENT 8 9
ROOT
ATOM      1  C   UNL     1     -32.285   7.085   7.788  1.00  0.00    +0.258 C 
ENDROOT
BRANCH   1   2
ATOM      2  O   UNL     1     -32.380   6.376   6.548  1.00  0.00    -0.359 OA
BRANCH   2   3
ATOM      3  C   UNL     1     -33.699   5.952   6.199  1.00  0.00    +0.113 C 
ATOM      4  C   UNL     1     -34.113   6.484   4.830  1.00  0.00    +0.038 C 
ATOM      5  C   UNL     1     -34.635   6.484   7.277  1.00  0.00    +0.038 C 
ENDBRANCH   2   3
ENDBRANCH   1   2
BRANCH   1   6
ATOM      6  C   UNL     1     -31.611   6.245   8.886  1.00  0.00    +0.337 C 
ATOM      7  O   UNL     1     -30.479   5.787   8.885  1.00  0.00    -0.249 OA
BRANCH   6   8
ATOM      8  O   UNL     1     -32.431   5.978   9.931  1.00  0.00    -0.479 OA
ATOM      9  H   UNL     1     -31.861   5.467  10.544  1.00  0.00    +0.296 HD
ENDBRANCH   6   8
ENDBRANCH   1   6
BRANCH   1  10
ATOM     10  C   UNL     1     -31.513   8.370   7.531  1.00  0.00    -0.008 A 
ATOM     11  C   UNL     1     -32.093   9.617   7.814  1.00  0.00    +0.007 A 
ATOM     12  C   UNL     1     -30.198   8.336   7.037  1.00  0.00    +0.007 A 
ATOM     13  C   UNL     1     -31.379  10.798   7.598  1.00  0.00    +0.000 A 
ATOM     14  C   UNL     1     -29.488   9.517   6.823  1.00  0.00    +0.000 A 
ATOM     15  C   UNL     1     -30.078  10.747   7.103  1.00  0.00    +0.000 A 
ENDBRANCH   1  10
TORSDOF 5
ENDMDL
MODEL 7
REMARK VINA RESULT:    -5.942      6.727      9.345
REMARK INTER + INTRA:          -7.918
REMARK INTER:                  -7.521
REMARK INTRA:                  -0.397
REMARK UNBOUND:                -0.412
REMARK SMILES CC(C)O[C@@H](C(=O)O)c1ccccc1
REMARK SMILES IDX 5 1 4 2 2 3 1 4 3 5 6 6 7 7 8 8 9 10 10 11 14 12 11 13 13 14
REMARK SMILES IDX 12 15
REMARK H PARENT 8 9
ROOT
ATOM      1  C   UNL     1     -26.530   3.136   9.535  1.00  0.00    +0.258 C 
ENDROOT
BRANCH   1   2
ATOM      2  O   UNL     1     -27.397   3.281  10.665  1.00  0.00    -0.359 OA
BRANCH   2   3
ATOM      3  C   UNL     1     -27.893   2.054  11.202  1.00  0.00    +0.113 C 
ATOM      4  C   UNL     1     -29.319   1.777  10.736  1.00  0.00    +0.038 C 
ATOM      5  C   UNL     1     -27.850   2.185  12.720  1.00  0.00    +0.038 C 
ENDBRANCH   2   3
ENDBRANCH   1   2
BRANCH   1   6
ATOM      6  C   UNL     1     -26.224   4.485   8.861  1.00  0.00    +0.337 C 
ATOM      7  O   UNL     1     -25.362   4.725   8.030  1.00  0.00    -0.249 OA
BRANCH   6   8
ATOM      8  O   UNL     1     -27.006   5.495   9.313  1.00  0.00    -0.479 OA
ATOM      9  H   UNL     1     -26.359   6.165   9.618  1.00  0.00    +0.296 HD
ENDBRANCH   6   8
ENDBRANCH   1   6
BRANCH   1  10
ATOM     10  C   UNL     1     -25.253   2.461  10.012  1.00  0.00    -0.008 A 
ATOM     11  C   UNL     1     -24.962   1.141   9.632  1.00  0.00    +0.007 A 
ATOM     12  C   UNL     1     -24.328   3.150  10.813  1.00  0.00    +0.007 A 
ATOM     13  C   UNL     1     -23.781   0.525  10.051  1.00  0.00    +0.000 A 
ATOM     14  C   UNL     1     -23.149   2.532  11.231  1.00  0.00    +0.000 A 
ATOM     15  C   UNL     1     -22.876   1.220  10.850  1.00  0.00    +0.000 A 
ENDBRANCH   1  10
TORSDOF 5
ENDMDL
MODEL 8
REMARK VINA RESULT:    -5.853      6.903      9.288
REMARK INTER + INTRA:          -7.805
REMARK INTER:                  -7.330
REMARK INTRA:                  -0.475
REMARK UNBOUND:                -0.412
REMARK SMILES CC(C)O[C@@H](C(=O)O)c1ccccc1
REMARK SMILES IDX 5 1 4 2 2 3 1 4 3 5 6 6 7 7 8 8 9 10 10 11 14 12 11 13 13 14
REMARK SMILES IDX 12 15
REMARK H PARENT 8 9
ROOT
ATOM      1  C   UNL     1     -26.401   1.857  10.654  1.00  0.00    +0.258 C 
ENDROOT
BRANCH   1   2
ATOM      2  O   UNL     1     -27.734   1.358  10.503  1.00  0.00    -0.359 OA
BRANCH   2   3
ATOM      3  C   UNL     1     -28.383   0.999  11.724  1.00  0.00    +0.113 C 
ATOM      4  C   UNL     1     -29.902   1.030  11.579  1.00  0.00    +0.038 C 
ATOM      5  C   UNL     1     -27.933   2.006  12.776  1.00  0.00    +0.038 C 
ENDBRANCH   2   3
ENDBRANCH   1   2
BRANCH   1   6
ATOM      6  C   UNL     1     -25.346   0.851  10.163  1.00  0.00    +0.337 C 
ATOM      7  O   UNL     1     -24.488   0.286  10.825  1.00  0.00    -0.249 OA
BRANCH   6   8
ATOM      8  O   UNL     1     -25.396   0.638   8.826  1.00  0.00    -0.479 OA
ATOM      9  H   UNL     1     -25.687   1.503   8.468  1.00  0.00    +0.296 HD
ENDBRANCH   6   8
ENDBRANCH   1   6
BRANCH   1  10
ATOM     10  C   UNL     1     -26.306   3.167   9.888  1.00  0.00    -0.008 A 
ATOM     11  C   UNL     1     -25.118   3.915   9.906  1.00  0.00    +0.007 A 
ATOM     12  C   UNL     1     -27.387   3.638   9.125  1.00  0.00    +0.007 A 
ATOM     13  C   UNL     1     -25.020   5.109   9.187  1.00  0.00    +0.000 A 
ATOM     14  C   UNL     1     -27.286   4.831   8.409  1.00  0.00    +0.000 A 
ATOM     15  C   UNL     1     -26.103   5.566   8.440  1.00  0.00    +0.000 A 
ENDBRANCH   1  10
TORSDOF 5
ENDMDL
MODEL 9
REMARK VINA RESULT:    -5.629      8.601      9.555
REMARK INTER + INTRA:          -7.522
REMARK INTER:                  -7.000
REMARK INTRA:                  -0.522
REMARK UNBOUND:                -0.412
REMARK SMILES CC(C)O[C@@H](C(=O)O)c1ccccc1
REMARK SMILES IDX 5 1 4 2 2 3 1 4 3 5 6 6 7 7 8 8 9 10 10 11 14 12 11 13 13 14
REMARK SMILES IDX 12 15
REMARK H PARENT 8 9
ROOT
ATOM      1  C   UNL     1     -26.279   1.644  10.775  1.00  0.00    +0.258 C 
ENDROOT
BRANCH   1   2
ATOM      2  O   UNL     1     -25.320   2.006  11.775  1.00  0.00    -0.359 OA
BRANCH   2   3
ATOM      3  C   UNL     1     -24.467   3.096  11.421  1.00  0.00    +0.113 C 
ATOM      4  C   UNL     1     -25.065   3.929  10.292  1.00  0.00    +0.038 C 
ATOM      5  C   UNL     1     -23.137   2.493  10.985  1.00  0.00    +0.038 C 
ENDBRANCH   2   3
ENDBRANCH   1   2
BRANCH   1   6
ATOM      6  C   UNL     1     -25.856   0.387   9.995  1.00  0.00    +0.337 C 
ATOM      7  O   UNL     1     -25.786  -0.760  10.411  1.00  0.00    -0.249 OA
BRANCH   6   8
ATOM      8  O   UNL     1     -25.491   0.650   8.718  1.00  0.00    -0.479 OA
ATOM      9  H   UNL     1     -25.935  -0.056   8.203  1.00  0.00    +0.296 HD
ENDBRANCH   6   8
ENDBRANCH   1   6
BRANCH   1  10
ATOM     10  C   UNL     1     -27.616   1.434  11.468  1.00  0.00    -0.008 A 
ATOM     11  C   UNL     1     -28.760   1.110  10.722  1.00  0.00    +0.007 A 
ATOM     12  C   UNL     1     -27.728   1.527  12.865  1.00  0.00    +0.007 A 
ATOM     13  C   UNL     1     -29.985   0.896  11.356  1.00  0.00    +0.000 A 
ATOM     14  C   UNL     1     -28.953   1.314  13.496  1.00  0.00    +0.000 A 
ATOM     15  C   UNL     1     -30.082   0.998  12.742  1.00  0.00    +0.000 A 
ENDBRANCH   1  10
TORSDOF 5
ENDMDL
