REMARK SMILES Cc1ccc(S(=O)(=O)O[C@H]2[C@H]3OC(C)(C)O[C@@H]3[C@H]3OC[C@@H]2O3)cc1
REMARK SMILES IDX 6 1 7 2 8 3 5 4 2 5 3 6 24 7 4 8 23 9 1 10 9 11 10 12 21 13
REMARK SMILES IDX 11 14 20 15 22 16 12 17 17 18 19 19 18 20 13 21 16 22 14 23
REMARK SMILES IDX 15 24
REMARK H PARENT
ROOT
ATOM      1  S   UNL     1       0.699   0.658   0.874  1.00  0.00    +0.297 S 
ATOM      2  O   UNL     1       0.452   0.377   2.274  1.00  0.00    -0.194 OA
ATOM      3  O   UNL     1       0.307   1.904   0.250  1.00  0.00    -0.194 OA
ENDROOT
BRANCH   1   4
ATOM      4  C   UNL     1       2.454   0.509   0.612  1.00  0.00    +0.094 A 
ATOM      5  C   UNL     1       5.195   0.230   0.162  1.00  0.00    -0.051 A 
ATOM      6  C   UNL     1       4.309   0.339  -0.919  1.00  0.00    +0.005 A 
ATOM      7  C   UNL     1       4.694   0.283   1.471  1.00  0.00    +0.005 A 
ATOM      8  C   UNL     1       2.938   0.472  -0.699  1.00  0.00    +0.023 A 
ATOM      9  C   UNL     1       3.323   0.417   1.700  1.00  0.00    +0.023 A 
ATOM     10  C   UNL     1       6.673   0.122  -0.074  1.00  0.00    +0.044 C 
ENDBRANCH   1   4
BRANCH   1  11
ATOM     11  O   UNL     1       0.109  -0.577  -0.016  1.00  0.00    -0.257 OA
BRANCH  11  12
ATOM     12  C   UNL     1      -1.035  -1.290   0.434  1.00  0.00    +0.203 C 
ATOM     13  C   UNL     1      -1.216  -2.597  -0.414  1.00  0.00    +0.180 C 
ATOM     14  C   UNL     1      -2.333  -0.499   0.293  1.00  0.00    +0.189 C 
ATOM     15  C   UNL     1      -0.607  -2.581  -1.807  1.00  0.00    +0.198 C 
ATOM     16  O   UNL     1      -2.611  -2.735  -0.780  1.00  0.00    -0.341 OA
ATOM     17  O   UNL     1      -2.421   0.830   0.782  1.00  0.00    -0.341 OA
ATOM     18  C   UNL     1      -2.675  -0.329  -1.165  1.00  0.00    +0.209 C 
ATOM     19  O   UNL     1      -1.547  -1.863  -2.624  1.00  0.00    -0.347 OA
ATOM     20  C   UNL     1      -2.732  -1.725  -1.813  1.00  0.00    +0.282 C 
ATOM     21  C   UNL     1      -3.549   1.360   0.036  1.00  0.00    +0.164 C 
ATOM     22  O   UNL     1      -3.870   0.448  -1.052  1.00  0.00    -0.339 OA
ATOM     23  C   UNL     1      -3.167   2.723  -0.530  1.00  0.00    +0.075 C 
ATOM     24  C   UNL     1      -4.761   1.462   0.954  1.00  0.00    +0.075 C 
ENDBRANCH  11  12
ENDBRANCH   1  11
TORSDOF 3
