REMARK SMILES CC[C@H](O)c1ccc(OC)cc1
REMARK SMILES IDX 5 1 6 2 7 3 8 4 11 5 12 6 3 7 2 8 1 9 4 10 9 12 10 13
REMARK H PARENT 4 11
ROOT
ATOM      1  C   UNL     1      -0.507   0.141   0.725  1.00  0.00    -0.019 A 
ATOM      2  C   UNL     1       0.117   1.290   1.243  1.00  0.00    +0.010 A 
ATOM      3  C   UNL     1       1.445   1.593   0.933  1.00  0.00    +0.047 A 
ATOM      4  C   UNL     1       2.193   0.751   0.112  1.00  0.00    +0.118 A 
ATOM      5  C   UNL     1       1.597  -0.404  -0.391  1.00  0.00    +0.047 A 
ATOM      6  C   UNL     1       0.263  -0.708  -0.081  1.00  0.00    +0.010 A 
ENDROOT
BRANCH   1   7
ATOM      7  C   UNL     1      -1.947  -0.151   1.117  1.00  0.00    +0.144 C 
BRANCH   7   8
ATOM      8  C   UNL     1      -2.695  -1.256   0.350  1.00  0.00    +0.033 C 
ATOM      9  C   UNL     1      -3.023  -0.910  -1.099  1.00  0.00    +0.007 C 
ENDBRANCH   7   8
BRANCH   7  10
ATOM     10  O   UNL     1      -2.730   1.044   1.032  1.00  0.00    -0.388 OA
ATOM     11  H   UNL     1      -2.392   1.553   0.275  1.00  0.00    +0.211 HD
ENDBRANCH   7  10
ENDBRANCH   1   7
BRANCH   4  12
ATOM     12  O   UNL     1       3.477   1.161  -0.114  1.00  0.00    -0.497 OA
ATOM     13  C   UNL     1       4.279   0.333  -0.947  1.00  0.00    +0.278 C 
ENDBRANCH   4  12
TORSDOF 4
