REMARK SMILES CCSC(SCC)[C@@H](O)[C@@H](O)[C@H](O)[C@@H](C)O
REMARK SMILES IDX 8 1 4 2 3 3 2 4 1 5 5 6 6 7 7 8 9 9 10 11 11 12 12 14 13 15
REMARK SMILES IDX 14 17 15 18 16 19
REMARK H PARENT 9 10 11 13 13 16 16 20
ROOT
ATOM      1  C   UNL     1      -0.002  -0.739   0.618  1.00  0.00    +0.168 C 
ENDROOT
BRANCH   1   2
ATOM      2  C   UNL     1      -1.186  -0.050  -0.118  1.00  0.00    +0.135 C 
BRANCH   2   3
ATOM      3  S   UNL     1      -2.172  -1.270  -1.119  1.00  0.00    -0.145 SA
BRANCH   3   4
ATOM      4  C   UNL     1      -2.743  -2.427   0.173  1.00  0.00    +0.067 C 
ATOM      5  C   UNL     1      -3.692  -3.443  -0.443  1.00  0.00    +0.015 C 
ENDBRANCH   3   4
ENDBRANCH   2   3
BRANCH   2   6
ATOM      6  S   UNL     1      -2.327   0.882   0.977  1.00  0.00    -0.145 SA
BRANCH   6   7
ATOM      7  C   UNL     1      -1.938   2.590   0.476  1.00  0.00    +0.067 C 
ATOM      8  C   UNL     1      -2.546   2.938  -0.873  1.00  0.00    +0.015 C 
ENDBRANCH   6   7
ENDBRANCH   2   6
ENDBRANCH   1   2
BRANCH   1   9
ATOM      9  O   UNL     1       0.738  -1.562  -0.308  1.00  0.00    -0.388 OA
ATOM     10  H   UNL     1       0.078  -2.128  -0.755  1.00  0.00    +0.211 HD
ENDBRANCH   1   9
BRANCH   1  11
ATOM     11  C   UNL     1       0.976   0.229   1.334  1.00  0.00    +0.176 C 
BRANCH  11  12
ATOM     12  O   UNL     1       1.603  -0.473   2.422  1.00  0.00    -0.388 OA
ATOM     13  H   UNL     1       2.422  -0.880   2.060  1.00  0.00    +0.211 HD
ENDBRANCH  11  12
BRANCH  11  14
ATOM     14  C   UNL     1       2.042   0.936   0.446  1.00  0.00    +0.174 C 
BRANCH  14  15
ATOM     15  O   UNL     1       1.420   1.628  -0.644  1.00  0.00    -0.388 OA
ATOM     16  H   UNL     1       1.379   1.006  -1.395  1.00  0.00    +0.211 HD
ENDBRANCH  14  15
BRANCH  14  17
ATOM     17  C   UNL     1       3.214   0.053  -0.067  1.00  0.00    +0.142 C 
ATOM     18  C   UNL     1       4.329   0.910  -0.668  1.00  0.00    +0.041 C 
BRANCH  17  19
ATOM     19  O   UNL     1       3.765  -0.738   0.988  1.00  0.00    -0.391 OA
ATOM     20  H   UNL     1       4.482  -1.274   0.601  1.00  0.00    +0.211 HD
ENDBRANCH  17  19
ENDBRANCH  14  17
ENDBRANCH  11  14
ENDBRANCH   1  11
TORSDOF 12
