REMARK SMILES NNC(=O)CCc1cc2ccccc2c2ccccc12
REMARK SMILES IDX 2 1 3 2 4 3 1 5 5 8 6 9 7 10 20 11 8 12 19 13 15 14 9 15
REMARK SMILES IDX 18 16 16 17 14 18 10 19 17 20 13 21 11 22 12 23
REMARK H PARENT 2 4 1 6 1 7
ROOT
ATOM      1  N   UNL     1       4.883  -1.609   0.159  1.00  0.00    -0.294 N 
ATOM      2  C   UNL     1       4.062  -0.493   0.033  1.00  0.00    +0.234 C 
ATOM      3  O   UNL     1       4.497   0.646  -0.104  1.00  0.00    -0.274 OA
ATOM      4  H   UNL     1       4.492  -2.548   0.133  1.00  0.00    +0.184 HD
ENDROOT
BRANCH   1   5
ATOM      5  N   UNL     1       6.281  -1.455   0.044  1.00  0.00    -0.248 NA
ATOM      6  H   UNL     1       6.618  -1.058   0.927  1.00  0.00    +0.143 HD
ATOM      7  H   UNL     1       6.445  -0.692  -0.627  1.00  0.00    +0.143 HD
ENDBRANCH   1   5
BRANCH   2   8
ATOM      8  C   UNL     1       2.589  -0.844   0.087  1.00  0.00    +0.106 C 
BRANCH   8   9
ATOM      9  C   UNL     1       1.713   0.404  -0.042  1.00  0.00    +0.046 C 
BRANCH   9  10
ATOM     10  C   UNL     1       0.199   0.219  -0.005  1.00  0.00    -0.039 A 
ATOM     11  C   UNL     1      -0.664   1.345  -0.122  1.00  0.00    -0.015 A 
ATOM     12  C   UNL     1      -0.364  -1.056   0.144  1.00  0.00    +0.013 A 
ATOM     13  C   UNL     1      -0.159   2.661  -0.274  1.00  0.00    +0.009 A 
ATOM     14  C   UNL     1      -2.077   1.162  -0.086  1.00  0.00    -0.010 A 
ATOM     15  C   UNL     1      -1.747  -1.260   0.181  1.00  0.00    -0.017 A 
ATOM     16  C   UNL     1      -0.991   3.773  -0.390  1.00  0.00    +0.001 A 
ATOM     17  C   UNL     1      -2.890   2.320  -0.206  1.00  0.00    +0.009 A 
ATOM     18  C   UNL     1      -2.626  -0.160   0.068  1.00  0.00    -0.011 A 
ATOM     19  C   UNL     1      -2.247  -2.566   0.333  1.00  0.00    +0.009 A 
ATOM     20  C   UNL     1      -2.361   3.602  -0.356  1.00  0.00    +0.001 A 
ATOM     21  C   UNL     1      -4.015  -0.455   0.116  1.00  0.00    +0.009 A 
ATOM     22  C   UNL     1      -3.615  -2.815   0.376  1.00  0.00    +0.001 A 
ATOM     23  C   UNL     1      -4.502  -1.758   0.267  1.00  0.00    +0.001 A 
ENDBRANCH   9  10
ENDBRANCH   8   9
ENDBRANCH   2   8
TORSDOF 4
