REMARK SMILES CC(=O)OC[C@@H]1O[C@@H](O[C@@]2(COC(C)=O)O[C@H](COC(C)=O)[C@H](OC(C)=O)[C@@H]2OC(C)=O)[C@H](OC(C)=O)[C@H](OC(C)=O)[C@H]1OC(C)=O
REMARK SMILES IDX 9 1 8 2 6 3 7 4 43 5 38 6 33 7 5 8 4 9 2 10 3 11 1 12 44 13
REMARK SMILES IDX 45 14 47 15 46 16 39 17 40 18 42 19 41 20 34 21 35 22 37 23
REMARK SMILES IDX 36 24 10 25 16 26 28 27 17 28 23 29 11 30 12 31 13 32 15 33
REMARK SMILES IDX 14 34 29 35 30 36 32 37 31 38 18 39 19 40 20 41 22 42 21 43
REMARK SMILES IDX 24 44 25 45 27 46 26 47
REMARK H PARENT
ROOT
ATOM      1  O   UNL     1      -0.075   0.008  -0.183  1.00  0.00    -0.310 OA
ENDROOT
BRANCH   1   2
ATOM      2  C   UNL     1       0.921  -0.742   0.501  1.00  0.00    +0.299 C 
ATOM      3  C   UNL     1       2.704   0.863   0.296  1.00  0.00    +0.204 C 
ATOM      4  O   UNL     1       1.866   0.089   1.161  1.00  0.00    -0.338 OA
ATOM      5  C   UNL     1       3.466  -0.008  -0.721  1.00  0.00    +0.253 C 
ATOM      6  C   UNL     1       2.477  -0.917  -1.470  1.00  0.00    +0.266 C 
ATOM      7  C   UNL     1       1.607  -1.703  -0.482  1.00  0.00    +0.277 C 
BRANCH   3   8
ATOM      8  C   UNL     1       3.699   1.639   1.181  1.00  0.00    +0.269 C 
BRANCH   8   9
ATOM      9  O   UNL     1       3.024   2.670   1.929  1.00  0.00    -0.463 OA
BRANCH   9  10
ATOM     10  C   UNL     1       2.545   2.326   3.152  1.00  0.00    +0.302 C 
ATOM     11  O   UNL     1       2.715   1.258   3.727  1.00  0.00    -0.253 OA
ATOM     12  C   UNL     1       1.793   3.477   3.748  1.00  0.00    +0.139 C 
ENDBRANCH   9  10
ENDBRANCH   8   9
ENDBRANCH   3   8
BRANCH   5  13
ATOM     13  O   UNL     1       4.116   0.890  -1.655  1.00  0.00    -0.455 OA
BRANCH  13  14
ATOM     14  C   UNL     1       5.281   0.473  -2.215  1.00  0.00    +0.303 C 
ATOM     15  O   UNL     1       5.849  -0.582  -1.976  1.00  0.00    -0.253 OA
ATOM     16  C   UNL     1       5.779   1.502  -3.185  1.00  0.00    +0.139 C 
ENDBRANCH  13  14
ENDBRANCH   5  13
BRANCH   6  17
ATOM     17  O   UNL     1       3.195  -1.884  -2.272  1.00  0.00    -0.454 OA
BRANCH  17  18
ATOM     18  C   UNL     1       3.257  -1.681  -3.611  1.00  0.00    +0.303 C 
ATOM     19  O   UNL     1       2.811  -0.713  -4.209  1.00  0.00    -0.253 OA
ATOM     20  C   UNL     1       3.957  -2.833  -4.263  1.00  0.00    +0.139 C 
ENDBRANCH  17  18
ENDBRANCH   6  17
BRANCH   7  21
ATOM     21  O   UNL     1       2.425  -2.613   0.295  1.00  0.00    -0.453 OA
BRANCH  21  22
ATOM     22  C   UNL     1       2.489  -3.897  -0.148  1.00  0.00    +0.303 C 
ATOM     23  O   UNL     1       1.901  -4.348  -1.120  1.00  0.00    -0.253 OA
ATOM     24  C   UNL     1       3.384  -4.698   0.746  1.00  0.00    +0.139 C 
ENDBRANCH  21  22
ENDBRANCH   7  21
ENDBRANCH   1   2
BRANCH   1  25
ATOM     25  C   UNL     1      -1.348   0.140   0.475  1.00  0.00    +0.248 C 
ATOM     26  O   UNL     1      -2.248   0.712  -0.517  1.00  0.00    -0.333 OA
ATOM     27  C   UNL     1      -1.960  -1.251   0.804  1.00  0.00    +0.283 C 
ATOM     28  C   UNL     1      -3.302  -0.234  -0.805  1.00  0.00    +0.204 C 
ATOM     29  C   UNL     1      -3.431  -1.075   0.457  1.00  0.00    +0.255 C 
BRANCH  25  30
ATOM     30  C   UNL     1      -1.280   1.105   1.695  1.00  0.00    +0.303 C 
BRANCH  30  31
ATOM     31  O   UNL     1      -1.792   2.423   1.394  1.00  0.00    -0.460 OA
BRANCH  31  32
ATOM     32  C   UNL     1      -0.960   3.250   0.709  1.00  0.00    +0.302 C 
ATOM     33  O   UNL     1       0.216   3.037   0.462  1.00  0.00    -0.253 OA
ATOM     34  C   UNL     1      -1.680   4.513   0.352  1.00  0.00    +0.139 C 
ENDBRANCH  31  32
ENDBRANCH  30  31
ENDBRANCH  25  30
BRANCH  27  35
ATOM     35  O   UNL     1      -1.779  -1.657   2.173  1.00  0.00    -0.453 OA
BRANCH  35  36
ATOM     36  C   UNL     1      -1.714  -2.998   2.389  1.00  0.00    +0.303 C 
ATOM     37  O   UNL     1      -1.709  -3.851   1.512  1.00  0.00    -0.253 OA
ATOM     38  C   UNL     1      -1.641  -3.283   3.859  1.00  0.00    +0.139 C 
ENDBRANCH  35  36
ENDBRANCH  27  35
BRANCH  28  39
ATOM     39  C   UNL     1      -4.557   0.522  -1.230  1.00  0.00    +0.269 C 
BRANCH  39  40
ATOM     40  O   UNL     1      -4.315   1.101  -2.525  1.00  0.00    -0.463 OA
BRANCH  40  41
ATOM     41  C   UNL     1      -5.256   1.991  -2.933  1.00  0.00    +0.302 C 
ATOM     42  O   UNL     1      -6.268   2.290  -2.314  1.00  0.00    -0.253 OA
ATOM     43  C   UNL     1      -4.875   2.563  -4.264  1.00  0.00    +0.139 C 
ENDBRANCH  40  41
ENDBRANCH  39  40
ENDBRANCH  28  39
BRANCH  29  44
ATOM     44  O   UNL     1      -4.077  -0.357   1.530  1.00  0.00    -0.455 OA
BRANCH  44  45
ATOM     45  C   UNL     1      -5.396  -0.623   1.721  1.00  0.00    +0.303 C 
ATOM     46  O   UNL     1      -6.067  -1.371   1.026  1.00  0.00    -0.253 OA
ATOM     47  C   UNL     1      -5.910   0.140   2.901  1.00  0.00    +0.139 C 
ENDBRANCH  44  45
ENDBRANCH  29  44
ENDBRANCH   1  25
TORSDOF 21
