MODEL 1
REMARK VINA RESULT:    -8.263      0.000      0.000
REMARK INTER + INTRA:          -9.301
REMARK INTER:                  -9.230
REMARK INTRA:                  -0.072
REMARK UNBOUND:                -0.072
REMARK SMILES S=C(Nc1ccccc1)Nc1ccccc1
REMARK SMILES IDX 1 1 2 2 3 3 10 4 4 7 5 8 9 9 6 10 8 11 7 12 11 13 12 14
REMARK SMILES IDX 16 15 13 16 15 17 14 18
REMARK H PARENT 3 5 10 6
ROOT
ATOM      1  S   UNL     1     -25.566   6.098   7.303  1.00  0.00    -0.040 S 
ATOM      2  C   UNL     1     -26.792   5.914   8.425  1.00  0.00    +0.175 C 
ATOM      3  N   UNL     1     -26.788   5.039   9.517  1.00  0.00    -0.332 N 
ATOM      4  N   UNL     1     -28.008   6.607   8.444  1.00  0.00    -0.332 N 
ATOM      5  H   UNL     1     -27.307   5.403  10.307  1.00  0.00    +0.169 HD
ATOM      6  H   UNL     1     -28.766   6.051   8.819  1.00  0.00    +0.169 HD
ENDROOT
BRANCH   3   7
ATOM      7  C   UNL     1     -25.994   3.908   9.806  1.00  0.00    +0.040 A 
ATOM      8  C   UNL     1     -24.767   3.957  10.467  1.00  0.00    +0.026 A 
ATOM      9  C   UNL     1     -26.446   2.672   9.321  1.00  0.00    +0.026 A 
ATOM     10  C   UNL     1     -24.026   2.789  10.681  1.00  0.00    +0.002 A 
ATOM     11  C   UNL     1     -25.708   1.504   9.535  1.00  0.00    +0.002 A 
ATOM     12  C   UNL     1     -24.499   1.562  10.221  1.00  0.00    +0.000 A 
ENDBRANCH   3   7
BRANCH   4  13
ATOM     13  C   UNL     1     -28.415   7.796   7.800  1.00  0.00    +0.040 A 
ATOM     14  C   UNL     1     -27.566   8.865   7.511  1.00  0.00    +0.026 A 
ATOM     15  C   UNL     1     -29.781   7.926   7.509  1.00  0.00    +0.026 A 
ATOM     16  C   UNL     1     -28.062  10.023   6.902  1.00  0.00    +0.002 A 
ATOM     17  C   UNL     1     -30.277   9.082   6.900  1.00  0.00    +0.002 A 
ATOM     18  C   UNL     1     -29.415  10.129   6.591  1.00  0.00    +0.000 A 
ENDBRANCH   4  13
TORSDOF 2
ENDMDL
MODEL 2
REMARK VINA RESULT:    -8.258      0.062      6.997
REMARK INTER + INTRA:          -9.295
REMARK INTER:                  -9.206
REMARK INTRA:                  -0.088
REMARK UNBOUND:                -0.072
REMARK SMILES S=C(Nc1ccccc1)Nc1ccccc1
REMARK SMILES IDX 1 1 2 2 3 3 10 4 4 7 5 8 9 9 6 10 8 11 7 12 11 13 12 14
REMARK SMILES IDX 16 15 13 16 15 17 14 18
REMARK H PARENT 3 5 10 6
ROOT
ATOM      1  S   UNL     1     -25.559   6.084   7.321  1.00  0.00    -0.040 S 
ATOM      2  C   UNL     1     -26.767   5.911   8.463  1.00  0.00    +0.175 C 
ATOM      3  N   UNL     1     -27.983   6.603   8.491  1.00  0.00    -0.332 N 
ATOM      4  N   UNL     1     -26.746   5.049   9.566  1.00  0.00    -0.332 N 
ATOM      5  H   UNL     1     -28.734   6.051   8.887  1.00  0.00    +0.169 HD
ATOM      6  H   UNL     1     -27.251   5.423  10.360  1.00  0.00    +0.169 HD
ENDROOT
BRANCH   3   7
ATOM      7  C   UNL     1     -28.402   7.784   7.840  1.00  0.00    +0.040 A 
ATOM      8  C   UNL     1     -27.566   8.865   7.557  1.00  0.00    +0.026 A 
ATOM      9  C   UNL     1     -29.766   7.892   7.533  1.00  0.00    +0.026 A 
ATOM     10  C   UNL     1     -28.072  10.014   6.939  1.00  0.00    +0.002 A 
ATOM     11  C   UNL     1     -30.273   9.038   6.915  1.00  0.00    +0.002 A 
ATOM     12  C   UNL     1     -29.424  10.099   6.612  1.00  0.00    +0.000 A 
ENDBRANCH   3   7
BRANCH   4  13
ATOM     13  C   UNL     1     -25.946   3.923   9.856  1.00  0.00    +0.040 A 
ATOM     14  C   UNL     1     -24.728   3.979  10.535  1.00  0.00    +0.026 A 
ATOM     15  C   UNL     1     -26.379   2.687   9.356  1.00  0.00    +0.026 A 
ATOM     16  C   UNL     1     -23.979   2.816  10.750  1.00  0.00    +0.002 A 
ATOM     17  C   UNL     1     -25.633   1.525   9.570  1.00  0.00    +0.002 A 
ATOM     18  C   UNL     1     -24.434   1.589  10.273  1.00  0.00    +0.000 A 
ENDBRANCH   4  13
TORSDOF 2
ENDMDL
MODEL 3
REMARK VINA RESULT:    -7.998      6.269      8.631
REMARK INTER + INTRA:          -9.005
REMARK INTER:                  -8.920
REMARK INTRA:                  -0.084
REMARK UNBOUND:                -0.072
REMARK SMILES S=C(Nc1ccccc1)Nc1ccccc1
REMARK SMILES IDX 1 1 2 2 3 3 10 4 4 7 5 8 9 9 6 10 8 11 7 12 11 13 12 14
REMARK SMILES IDX 16 15 13 16 15 17 14 18
REMARK H PARENT 3 5 10 6
ROOT
ATOM      1  S   UNL     1     -31.765   6.263   8.440  1.00  0.00    -0.040 S 
ATOM      2  C   UNL     1     -32.945   7.238   7.768  1.00  0.00    +0.175 C 
ATOM      3  N   UNL     1     -32.738   8.466   7.131  1.00  0.00    -0.332 N 
ATOM      4  N   UNL     1     -34.320   6.975   7.741  1.00  0.00    -0.332 N 
ATOM      5  H   UNL     1     -33.409   8.637   6.392  1.00  0.00    +0.169 HD
ATOM      6  H   UNL     1     -34.877   7.820   7.784  1.00  0.00    +0.169 HD
ENDROOT
BRANCH   3   7
ATOM      7  C   UNL     1     -31.638   9.352   7.143  1.00  0.00    +0.040 A 
ATOM      8  C   UNL     1     -30.351   9.013   6.726  1.00  0.00    +0.026 A 
ATOM      9  C   UNL     1     -31.854  10.628   7.685  1.00  0.00    +0.026 A 
ATOM     10  C   UNL     1     -29.308   9.944   6.805  1.00  0.00    +0.002 A 
ATOM     11  C   UNL     1     -30.815  11.559   7.764  1.00  0.00    +0.002 A 
ATOM     12  C   UNL     1     -29.541  11.218   7.318  1.00  0.00    +0.000 A 
ENDBRANCH   3   7
BRANCH   4  13
ATOM     13  C   UNL     1     -35.047   5.782   7.942  1.00  0.00    +0.040 A 
ATOM     14  C   UNL     1     -34.804   4.589   7.259  1.00  0.00    +0.026 A 
ATOM     15  C   UNL     1     -36.129   5.837   8.832  1.00  0.00    +0.026 A 
ATOM     16  C   UNL     1     -35.598   3.461   7.494  1.00  0.00    +0.002 A 
ATOM     17  C   UNL     1     -36.922   4.711   9.068  1.00  0.00    +0.002 A 
ATOM     18  C   UNL     1     -36.652   3.519   8.402  1.00  0.00    +0.000 A 
ENDBRANCH   4  13
TORSDOF 2
ENDMDL
MODEL 4
REMARK VINA RESULT:    -7.988      6.227      7.726
REMARK INTER + INTRA:          -8.994
REMARK INTER:                  -8.914
REMARK INTRA:                  -0.080
REMARK UNBOUND:                -0.072
REMARK SMILES S=C(Nc1ccccc1)Nc1ccccc1
REMARK SMILES IDX 1 1 2 2 3 3 10 4 4 7 5 8 9 9 6 10 8 11 7 12 11 13 12 14
REMARK SMILES IDX 16 15 13 16 15 17 14 18
REMARK H PARENT 3 5 10 6
ROOT
ATOM      1  S   UNL     1     -31.764   6.232   8.438  1.00  0.00    -0.040 S 
ATOM      2  C   UNL     1     -32.932   7.218   7.761  1.00  0.00    +0.175 C 
ATOM      3  N   UNL     1     -34.309   6.972   7.737  1.00  0.00    -0.332 N 
ATOM      4  N   UNL     1     -32.710   8.440   7.114  1.00  0.00    -0.332 N 
ATOM      5  H   UNL     1     -34.856   7.824   7.771  1.00  0.00    +0.169 HD
ATOM      6  H   UNL     1     -33.378   8.613   6.373  1.00  0.00    +0.169 HD
ENDROOT
BRANCH   3   7
ATOM      7  C   UNL     1     -35.051   5.788   7.945  1.00  0.00    +0.040 A 
ATOM      8  C   UNL     1     -34.817   4.586   7.278  1.00  0.00    +0.026 A 
ATOM      9  C   UNL     1     -36.138   5.866   8.828  1.00  0.00    +0.026 A 
ATOM     10  C   UNL     1     -35.624   3.468   7.520  1.00  0.00    +0.002 A 
ATOM     11  C   UNL     1     -36.945   4.751   9.071  1.00  0.00    +0.002 A 
ATOM     12  C   UNL     1     -36.683   3.548   8.420  1.00  0.00    +0.000 A 
ENDBRANCH   3   7
BRANCH   4  13
ATOM     13  C   UNL     1     -31.600   9.311   7.119  1.00  0.00    +0.040 A 
ATOM     14  C   UNL     1     -30.317   8.953   6.702  1.00  0.00    +0.026 A 
ATOM     15  C   UNL     1     -31.798  10.593   7.654  1.00  0.00    +0.026 A 
ATOM     16  C   UNL     1     -29.263   9.871   6.774  1.00  0.00    +0.002 A 
ATOM     17  C   UNL     1     -30.746  11.510   7.726  1.00  0.00    +0.002 A 
ATOM     18  C   UNL     1     -29.478  11.150   7.280  1.00  0.00    +0.000 A 
ENDBRANCH   4  13
TORSDOF 2
ENDMDL
MODEL 5
REMARK VINA RESULT:    -7.723      6.972      9.336
REMARK INTER + INTRA:          -8.697
REMARK INTER:                  -8.587
REMARK INTRA:                  -0.110
REMARK UNBOUND:                -0.072
REMARK SMILES S=C(Nc1ccccc1)Nc1ccccc1
REMARK SMILES IDX 1 1 2 2 3 3 10 4 4 7 5 8 9 9 6 10 8 11 7 12 11 13 12 14
REMARK SMILES IDX 16 15 13 16 15 17 14 18
REMARK H PARENT 3 5 10 6
ROOT
ATOM      1  S   UNL     1     -34.605   4.543   7.329  1.00  0.00    -0.040 S 
ATOM      2  C   UNL     1     -34.970   6.021   8.021  1.00  0.00    +0.175 C 
ATOM      3  N   UNL     1     -35.901   6.249   9.041  1.00  0.00    -0.332 N 
ATOM      4  N   UNL     1     -34.401   7.255   7.685  1.00  0.00    -0.332 N 
ATOM      5  H   UNL     1     -35.634   7.017   9.644  1.00  0.00    +0.169 HD
ATOM      6  H   UNL     1     -35.049   8.025   7.799  1.00  0.00    +0.169 HD
ENDROOT
BRANCH   3   7
ATOM      7  C   UNL     1     -36.963   5.458   9.530  1.00  0.00    +0.040 A 
ATOM      8  C   UNL     1     -38.303   5.641   9.187  1.00  0.00    +0.026 A 
ATOM      9  C   UNL     1     -36.642   4.478  10.481  1.00  0.00    +0.026 A 
ATOM     10  C   UNL     1     -39.299   4.833   9.748  1.00  0.00    +0.002 A 
ATOM     11  C   UNL     1     -37.634   3.669  11.041  1.00  0.00    +0.002 A 
ATOM     12  C   UNL     1     -38.964   3.844  10.669  1.00  0.00    +0.000 A 
ENDBRANCH   3   7
BRANCH   4  13
ATOM     13  C   UNL     1     -33.224   7.578   6.976  1.00  0.00    +0.040 A 
ATOM     14  C   UNL     1     -32.951   7.161   5.673  1.00  0.00    +0.026 A 
ATOM     15  C   UNL     1     -32.242   8.302   7.669  1.00  0.00    +0.026 A 
ATOM     16  C   UNL     1     -31.740   7.498   5.057  1.00  0.00    +0.002 A 
ATOM     17  C   UNL     1     -31.033   8.639   7.054  1.00  0.00    +0.002 A 
ATOM     18  C   UNL     1     -30.784   8.242   5.745  1.00  0.00    +0.000 A 
ENDBRANCH   4  13
TORSDOF 2
ENDMDL
MODEL 6
REMARK VINA RESULT:    -7.714      7.038      9.738
REMARK INTER + INTRA:          -8.688
REMARK INTER:                  -8.535
REMARK INTRA:                  -0.153
REMARK UNBOUND:                -0.072
REMARK SMILES S=C(Nc1ccccc1)Nc1ccccc1
REMARK SMILES IDX 1 1 2 2 3 3 10 4 4 7 5 8 9 9 6 10 8 11 7 12 11 13 12 14
REMARK SMILES IDX 16 15 13 16 15 17 14 18
REMARK H PARENT 3 5 10 6
ROOT
ATOM      1  S   UNL     1     -34.570   4.397   7.482  1.00  0.00    -0.040 S 
ATOM      2  C   UNL     1     -34.982   5.892   8.108  1.00  0.00    +0.175 C 
ATOM      3  N   UNL     1     -34.462   7.128   7.707  1.00  0.00    -0.332 N 
ATOM      4  N   UNL     1     -35.907   6.134   9.130  1.00  0.00    -0.332 N 
ATOM      5  H   UNL     1     -35.136   7.878   7.796  1.00  0.00    +0.169 HD
ATOM      6  H   UNL     1     -35.660   6.938   9.694  1.00  0.00    +0.169 HD
ENDROOT
BRANCH   3   7
ATOM      7  C   UNL     1     -33.306   7.460   6.967  1.00  0.00    +0.040 A 
ATOM      8  C   UNL     1     -33.068   7.053   5.655  1.00  0.00    +0.026 A 
ATOM      9  C   UNL     1     -32.308   8.183   7.638  1.00  0.00    +0.026 A 
ATOM     10  C   UNL     1     -31.876   7.398   5.007  1.00  0.00    +0.002 A 
ATOM     11  C   UNL     1     -31.118   8.530   6.993  1.00  0.00    +0.002 A 
ATOM     12  C   UNL     1     -30.904   8.142   5.673  1.00  0.00    +0.000 A 
ENDBRANCH   3   7
BRANCH   4  13
ATOM     13  C   UNL     1     -36.933   5.330   9.671  1.00  0.00    +0.040 A 
ATOM     14  C   UNL     1     -36.723   4.304  10.594  1.00  0.00    +0.026 A 
ATOM     15  C   UNL     1     -38.231   5.537   9.182  1.00  0.00    +0.026 A 
ATOM     16  C   UNL     1     -37.795   3.530  11.053  1.00  0.00    +0.002 A 
ATOM     17  C   UNL     1     -39.302   4.765   9.640  1.00  0.00    +0.002 A 
ATOM     18  C   UNL     1     -39.084   3.764  10.581  1.00  0.00    +0.000 A 
ENDBRANCH   4  13
TORSDOF 2
ENDMDL
MODEL 7
REMARK VINA RESULT:    -7.260      2.542      3.350
REMARK INTER + INTRA:          -8.180
REMARK INTER:                  -8.141
REMARK INTRA:                  -0.039
REMARK UNBOUND:                -0.072
REMARK SMILES S=C(Nc1ccccc1)Nc1ccccc1
REMARK SMILES IDX 1 1 2 2 3 3 10 4 4 7 5 8 9 9 6 10 8 11 7 12 11 13 12 14
REMARK SMILES IDX 16 15 13 16 15 17 14 18
REMARK H PARENT 3 5 10 6
ROOT
ATOM      1  S   UNL     1     -25.106   3.977  10.251  1.00  0.00    -0.040 S 
ATOM      2  C   UNL     1     -26.711   4.002   9.785  1.00  0.00    +0.175 C 
ATOM      3  N   UNL     1     -27.750   3.262  10.360  1.00  0.00    -0.332 N 
ATOM      4  N   UNL     1     -27.260   4.767   8.749  1.00  0.00    -0.332 N 
ATOM      5  H   UNL     1     -28.638   3.748  10.323  1.00  0.00    +0.169 HD
ATOM      6  H   UNL     1     -28.042   4.307   8.299  1.00  0.00    +0.169 HD
ENDROOT
BRANCH   3   7
ATOM      7  C   UNL     1     -27.736   2.125  11.197  1.00  0.00    +0.040 A 
ATOM      8  C   UNL     1     -27.747   2.175  12.591  1.00  0.00    +0.026 A 
ATOM      9  C   UNL     1     -27.626   0.875  10.571  1.00  0.00    +0.026 A 
ATOM     10  C   UNL     1     -27.695   0.998  13.346  1.00  0.00    +0.002 A 
ATOM     11  C   UNL     1     -27.575  -0.302  11.323  1.00  0.00    +0.002 A 
ATOM     12  C   UNL     1     -27.616  -0.240  12.713  1.00  0.00    +0.000 A 
ENDBRANCH   3   7
BRANCH   4  13
ATOM     13  C   UNL     1     -26.767   5.896   8.059  1.00  0.00    +0.040 A 
ATOM     14  C   UNL     1     -25.470   6.005   7.557  1.00  0.00    +0.026 A 
ATOM     15  C   UNL     1     -27.626   6.999   7.946  1.00  0.00    +0.026 A 
ATOM     16  C   UNL     1     -25.051   7.176   6.915  1.00  0.00    +0.002 A 
ATOM     17  C   UNL     1     -27.209   8.169   7.305  1.00  0.00    +0.002 A 
ATOM     18  C   UNL     1     -25.922   8.255   6.784  1.00  0.00    +0.000 A 
ENDBRANCH   4  13
TORSDOF 2
ENDMDL
MODEL 8
REMARK VINA RESULT:    -7.128      2.665      7.056
REMARK INTER + INTRA:          -8.033
REMARK INTER:                  -8.034
REMARK INTRA:                   0.001
REMARK UNBOUND:                -0.072
REMARK SMILES S=C(Nc1ccccc1)Nc1ccccc1
REMARK SMILES IDX 1 1 2 2 3 3 10 4 4 7 5 8 9 9 6 10 8 11 7 12 11 13 12 14
REMARK SMILES IDX 16 15 13 16 15 17 14 18
REMARK H PARENT 3 5 10 6
ROOT
ATOM      1  S   UNL     1     -25.242   3.597  10.003  1.00  0.00    -0.040 S 
ATOM      2  C   UNL     1     -26.877   3.811   9.726  1.00  0.00    +0.175 C 
ATOM      3  N   UNL     1     -27.450   4.694   8.804  1.00  0.00    -0.332 N 
ATOM      4  N   UNL     1     -27.921   3.142  10.375  1.00  0.00    -0.332 N 
ATOM      5  H   UNL     1     -28.322   4.344   8.424  1.00  0.00    +0.169 HD
ATOM      6  H   UNL     1     -28.751   3.715  10.469  1.00  0.00    +0.169 HD
ENDROOT
BRANCH   3   7
ATOM      7  C   UNL     1     -26.918   5.811   8.124  1.00  0.00    +0.040 A 
ATOM      8  C   UNL     1     -25.641   5.856   7.565  1.00  0.00    +0.026 A 
ATOM      9  C   UNL     1     -27.710   6.968   8.084  1.00  0.00    +0.026 A 
ATOM     10  C   UNL     1     -25.179   7.019   6.938  1.00  0.00    +0.002 A 
ATOM     11  C   UNL     1     -27.251   8.130   7.458  1.00  0.00    +0.002 A 
ATOM     12  C   UNL     1     -25.985   8.153   6.879  1.00  0.00    +0.000 A 
ENDBRANCH   3   7
BRANCH   4  13
ATOM     13  C   UNL     1     -27.937   1.957  11.143  1.00  0.00    +0.040 A 
ATOM     14  C   UNL     1     -28.053   0.674  10.607  1.00  0.00    +0.026 A 
ATOM     15  C   UNL     1     -27.911   2.102  12.538  1.00  0.00    +0.026 A 
ATOM     16  C   UNL     1     -28.096  -0.446  11.445  1.00  0.00    +0.002 A 
ATOM     17  C   UNL     1     -27.954   0.984  13.375  1.00  0.00    +0.002 A 
ATOM     18  C   UNL     1     -28.041  -0.292  12.828  1.00  0.00    +0.000 A 
ENDBRANCH   4  13
TORSDOF 2
ENDMDL
MODEL 9
REMARK VINA RESULT:    -6.869      6.101      7.022
REMARK INTER + INTRA:          -7.744
REMARK INTER:                  -7.445
REMARK INTRA:                  -0.298
REMARK UNBOUND:                -0.072
REMARK SMILES S=C(Nc1ccccc1)Nc1ccccc1
REMARK SMILES IDX 1 1 2 2 3 3 10 4 4 7 5 8 9 9 6 10 8 11 7 12 11 13 12 14
REMARK SMILES IDX 16 15 13 16 15 17 14 18
REMARK H PARENT 3 5 10 6
ROOT
ATOM      1  S   UNL     1     -27.318   0.826  12.547  1.00  0.00    -0.040 S 
ATOM      2  C   UNL     1     -27.283   0.635  10.886  1.00  0.00    +0.175 C 
ATOM      3  N   UNL     1     -26.140   0.451  10.100  1.00  0.00    -0.332 N 
ATOM      4  N   UNL     1     -28.390   0.630  10.030  1.00  0.00    -0.332 N 
ATOM      5  H   UNL     1     -26.319  -0.125   9.286  1.00  0.00    +0.169 HD
ATOM      6  H   UNL     1     -28.175   1.009   9.116  1.00  0.00    +0.169 HD
ENDROOT
BRANCH   3   7
ATOM      7  C   UNL     1     -24.774   0.681  10.369  1.00  0.00    +0.040 A 
ATOM      8  C   UNL     1     -24.210   1.944  10.550  1.00  0.00    +0.026 A 
ATOM      9  C   UNL     1     -23.928  -0.438  10.375  1.00  0.00    +0.026 A 
ATOM     10  C   UNL     1     -22.837   2.085  10.778  1.00  0.00    +0.002 A 
ATOM     11  C   UNL     1     -22.557  -0.300  10.604  1.00  0.00    +0.002 A 
ATOM     12  C   UNL     1     -22.011   0.964  10.811  1.00  0.00    +0.000 A 
ENDBRANCH   3   7
BRANCH   4  13
ATOM     13  C   UNL     1     -29.768   0.460  10.286  1.00  0.00    +0.040 A 
ATOM     14  C   UNL     1     -30.648   1.504  10.575  1.00  0.00    +0.026 A 
ATOM     15  C   UNL     1     -30.252  -0.856  10.324  1.00  0.00    +0.026 A 
ATOM     16  C   UNL     1     -31.995   1.242  10.852  1.00  0.00    +0.002 A 
ATOM     17  C   UNL     1     -31.597  -1.117  10.600  1.00  0.00    +0.002 A 
ATOM     18  C   UNL     1     -32.470  -0.067  10.859  1.00  0.00    +0.000 A 
ENDBRANCH   4  13
TORSDOF 2
ENDMDL
