REMARK SMILES Cc1nn(C)c(N)c1C#N
REMARK SMILES IDX 5 1 4 2 3 3 2 4 1 5 8 6 6 7 9 8 10 9 7 10
REMARK H PARENT 7 11 7 12
ROOT
ATOM      1  C   UNL     1       2.397  -0.875  -0.229  1.00  0.00    +0.176 C 
ATOM      2  N   UNL     1       1.026  -0.455  -0.061  1.00  0.00    -0.252 N 
ATOM      3  N   UNL     1       0.155  -1.283   0.552  1.00  0.00    -0.175 NA
ATOM      4  C   UNL     1      -1.006  -0.617   0.518  1.00  0.00    +0.079 A 
ATOM      5  C   UNL     1      -2.232  -1.219   1.099  1.00  0.00    +0.070 C 
ATOM      6  C   UNL     1      -0.864   0.644  -0.108  1.00  0.00    +0.117 A 
ATOM      7  C   UNL     1       0.465   0.736  -0.467  1.00  0.00    +0.139 A 
ATOM      8  C   UNL     1      -1.875   1.624  -0.321  1.00  0.00    +0.105 C 
ATOM      9  N   UNL     1      -2.702   2.422  -0.486  1.00  0.00    -0.192 NA
ENDROOT
BRANCH   7  10
ATOM     10  N   UNL     1       1.166   1.713  -1.088  1.00  0.00    -0.383 N 
ATOM     11  H   UNL     1       0.753   2.632  -1.244  1.00  0.00    +0.158 HD
ATOM     12  H   UNL     1       2.183   1.734  -1.105  1.00  0.00    +0.158 HD
ENDBRANCH   7  10
TORSDOF 1
