REMARK SMILES CCCC(=O)CC(=O)CC(C)C
REMARK SMILES IDX 6 1 4 2 5 3 3 4 2 5 1 6 7 7 8 8 9 9 10 10 11 11 12 12
REMARK H PARENT
ROOT
ATOM      1  C   UNL     1       0.597   1.792  -0.173  1.00  0.00    +0.151 C 
ENDROOT
BRANCH   1   2
ATOM      2  C   UNL     1       1.181   0.865  -1.203  1.00  0.00    +0.140 C 
ATOM      3  O   UNL     1       0.528   0.529  -2.193  1.00  0.00    -0.299 OA
BRANCH   2   4
ATOM      4  C   UNL     1       2.574   0.322  -0.965  1.00  0.00    +0.076 C 
BRANCH   4   5
ATOM      5  C   UNL     1       2.568  -0.786   0.080  1.00  0.00    +0.004 C 
ATOM      6  C   UNL     1       3.940  -1.423   0.224  1.00  0.00    +0.004 C 
ENDBRANCH   4   5
ENDBRANCH   2   4
ENDBRANCH   1   2
BRANCH   1   7
ATOM      7  C   UNL     1      -0.426   1.109   0.692  1.00  0.00    +0.140 C 
ATOM      8  O   UNL     1      -0.128   0.724   1.823  1.00  0.00    -0.299 OA
BRANCH   7   9
ATOM      9  C   UNL     1      -1.829   0.954   0.125  1.00  0.00    +0.079 C 
BRANCH   9  10
ATOM     10  C   UNL     1      -2.559  -0.286   0.660  1.00  0.00    -0.010 C 
ATOM     11  C   UNL     1      -4.034  -0.239   0.258  1.00  0.00    +0.008 C 
ATOM     12  C   UNL     1      -1.919  -1.576   0.141  1.00  0.00    +0.008 C 
ENDBRANCH   9  10
ENDBRANCH   7   9
ENDBRANCH   1   7
TORSDOF 6
