MODEL 1
REMARK VINA RESULT:    -5.878      0.000      0.000
REMARK INTER + INTRA:          -9.844
REMARK INTER:                  -9.314
REMARK INTRA:                  -0.529
REMARK UNBOUND:                -0.529
REMARK SMILES CCN(CC)CCN(CC(=O)O)CC(=O)O
REMARK SMILES IDX 7 1 6 2 3 3 2 4 1 5 4 6 5 7 8 8 9 9 10 10 11 11 12 12 13 14
REMARK SMILES IDX 14 15 15 16 16 17
REMARK H PARENT 12 13 16 18
ROOT
ATOM      1  C   UNL     1     -28.632   8.070   7.725  1.00  0.00    +0.101 C 
ENDROOT
BRANCH   1   2
ATOM      2  C   UNL     1     -29.684   8.545   6.688  1.00  0.00    +0.100 C 
BRANCH   2   3
ATOM      3  N   UNL     1     -30.758   9.357   7.311  1.00  0.00    -0.303 NA
BRANCH   3   4
ATOM      4  C   UNL     1     -32.063   8.682   7.159  1.00  0.00    +0.081 C 
ATOM      5  C   UNL     1     -32.082   7.743   5.956  1.00  0.00    +0.021 C 
ENDBRANCH   3   4
BRANCH   3   6
ATOM      6  C   UNL     1     -30.801  10.707   6.713  1.00  0.00    +0.081 C 
ATOM      7  C   UNL     1     -30.641  11.800   7.766  1.00  0.00    +0.021 C 
ENDBRANCH   3   6
ENDBRANCH   2   3
ENDBRANCH   1   2
BRANCH   1   8
ATOM      8  N   UNL     1     -27.264   8.542   7.407  1.00  0.00    -0.281 NA
BRANCH   8   9
ATOM      9  C   UNL     1     -26.473   7.462   6.754  1.00  0.00    +0.208 C 
BRANCH   9  10
ATOM     10  C   UNL     1     -25.351   6.942   7.649  1.00  0.00    +0.317 C 
ATOM     11  O   UNL     1     -25.257   5.856   8.199  1.00  0.00    -0.251 OA
BRANCH  10  12
ATOM     12  O   UNL     1     -24.356   7.848   7.778  1.00  0.00    -0.480 OA
ATOM     13  H   UNL     1     -23.823   7.495   8.521  1.00  0.00    +0.296 HD
ENDBRANCH  10  12
ENDBRANCH   9  10
ENDBRANCH   8   9
BRANCH   8  14
ATOM     14  C   UNL     1     -27.356   9.743   6.535  1.00  0.00    +0.208 C 
BRANCH  14  15
ATOM     15  C   UNL     1     -26.164   9.889   5.607  1.00  0.00    +0.317 C 
ATOM     16  O   UNL     1     -25.036  10.222   5.943  1.00  0.00    -0.251 OA
BRANCH  15  17
ATOM     17  O   UNL     1     -26.461   9.660   4.313  1.00  0.00    -0.480 OA
ATOM     18  H   UNL     1     -26.799   8.742   4.305  1.00  0.00    +0.296 HD
ENDBRANCH  15  17
ENDBRANCH  14  15
ENDBRANCH   8  14
ENDBRANCH   1   8
TORSDOF 11
ENDMDL
MODEL 2
REMARK VINA RESULT:    -5.563      3.962      6.394
REMARK INTER + INTRA:          -9.344
REMARK INTER:                  -8.541
REMARK INTRA:                  -0.803
REMARK UNBOUND:                -0.529
REMARK SMILES CCN(CC)CCN(CC(=O)O)CC(=O)O
REMARK SMILES IDX 7 1 6 2 3 3 2 4 1 5 4 6 5 7 8 8 9 9 10 10 11 11 12 12 13 14
REMARK SMILES IDX 14 15 15 16 16 17
REMARK H PARENT 12 13 16 18
ROOT
ATOM      1  C   UNL     1     -29.994   7.849   7.637  1.00  0.00    +0.101 C 
ENDROOT
BRANCH   1   2
ATOM      2  C   UNL     1     -28.785   8.528   6.940  1.00  0.00    +0.100 C 
BRANCH   2   3
ATOM      3  N   UNL     1     -27.494   8.155   7.569  1.00  0.00    -0.303 NA
BRANCH   3   4
ATOM      4  C   UNL     1     -26.399   8.252   6.583  1.00  0.00    +0.081 C 
ATOM      5  C   UNL     1     -26.861   8.894   5.278  1.00  0.00    +0.021 C 
ENDBRANCH   3   4
BRANCH   3   6
ATOM      6  C   UNL     1     -27.566   6.791   8.129  1.00  0.00    +0.081 C 
ATOM      7  C   UNL     1     -26.278   6.008   7.886  1.00  0.00    +0.021 C 
ENDBRANCH   3   6
ENDBRANCH   2   3
ENDBRANCH   1   2
BRANCH   1   8
ATOM      8  N   UNL     1     -31.286   8.480   7.280  1.00  0.00    -0.281 NA
BRANCH   8   9
ATOM      9  C   UNL     1     -31.066   9.821   6.669  1.00  0.00    +0.208 C 
BRANCH   9  10
ATOM     10  C   UNL     1     -31.454  10.958   7.611  1.00  0.00    +0.317 C 
ATOM     11  O   UNL     1     -30.836  11.980   7.865  1.00  0.00    -0.251 OA
BRANCH  10  12
ATOM     12  O   UNL     1     -32.662  10.746   8.177  1.00  0.00    -0.480 OA
ATOM     13  H   UNL     1     -32.458  10.695   9.134  1.00  0.00    +0.296 HD
ENDBRANCH  10  12
ENDBRANCH   9  10
ENDBRANCH   8   9
BRANCH   8  14
ATOM     14  C   UNL     1     -32.023   7.581   6.353  1.00  0.00    +0.208 C 
BRANCH  14  15
ATOM     15  C   UNL     1     -33.417   7.240   6.848  1.00  0.00    +0.317 C 
ATOM     16  O   UNL     1     -34.053   6.237   6.553  1.00  0.00    -0.251 OA
BRANCH  15  17
ATOM     17  O   UNL     1     -33.952   8.192   7.638  1.00  0.00    -0.480 OA
ATOM     18  H   UNL     1     -34.727   8.513   7.134  1.00  0.00    +0.296 HD
ENDBRANCH  15  17
ENDBRANCH  14  15
ENDBRANCH   8  14
ENDBRANCH   1   8
TORSDOF 11
ENDMDL
MODEL 3
REMARK VINA RESULT:    -5.435      6.158      8.584
REMARK INTER + INTRA:          -9.141
REMARK INTER:                  -8.475
REMARK INTRA:                  -0.666
REMARK UNBOUND:                -0.529
REMARK SMILES CCN(CC)CCN(CC(=O)O)CC(=O)O
REMARK SMILES IDX 7 1 6 2 3 3 2 4 1 5 4 6 5 7 8 8 9 9 10 10 11 11 12 12 13 14
REMARK SMILES IDX 14 15 15 16 16 17
REMARK H PARENT 12 13 16 18
ROOT
ATOM      1  C   UNL     1     -26.272   1.996   9.219  1.00  0.00    +0.101 C 
ENDROOT
BRANCH   1   2
ATOM      2  C   UNL     1     -26.887   1.182  10.388  1.00  0.00    +0.100 C 
BRANCH   2   3
ATOM      3  N   UNL     1     -28.025   1.889  11.025  1.00  0.00    -0.303 NA
BRANCH   3   4
ATOM      4  C   UNL     1     -27.648   2.349  12.377  1.00  0.00    +0.081 C 
ATOM      5  C   UNL     1     -28.451   1.641  13.465  1.00  0.00    +0.021 C 
ENDBRANCH   3   4
BRANCH   3   6
ATOM      6  C   UNL     1     -29.210   1.011  11.089  1.00  0.00    +0.081 C 
ATOM      7  C   UNL     1     -29.060  -0.214  10.189  1.00  0.00    +0.021 C 
ENDBRANCH   3   6
ENDBRANCH   2   3
ENDBRANCH   1   2
BRANCH   1   8
ATOM      8  N   UNL     1     -24.982   2.628   9.580  1.00  0.00    -0.281 NA
BRANCH   8   9
ATOM      9  C   UNL     1     -25.193   4.032  10.035  1.00  0.00    +0.208 C 
BRANCH   9  10
ATOM     10  C   UNL     1     -25.606   4.956   8.893  1.00  0.00    +0.317 C 
ATOM     11  O   UNL     1     -25.137   5.033   7.768  1.00  0.00    -0.251 OA
BRANCH  10  12
ATOM     12  O   UNL     1     -26.651   5.741   9.239  1.00  0.00    -0.480 OA
ATOM     13  H   UNL     1     -27.018   6.023   8.376  1.00  0.00    +0.296 HD
ENDBRANCH  10  12
ENDBRANCH   9  10
ENDBRANCH   8   9
BRANCH   8  14
ATOM     14  C   UNL     1     -24.323   1.815  10.636  1.00  0.00    +0.208 C 
BRANCH  14  15
ATOM     15  C   UNL     1     -23.172   0.980  10.103  1.00  0.00    +0.317 C 
ATOM     16  O   UNL     1     -22.545   0.144  10.738  1.00  0.00    -0.251 OA
BRANCH  15  17
ATOM     17  O   UNL     1     -22.843   1.273   8.830  1.00  0.00    -0.480 OA
ATOM     18  H   UNL     1     -22.504   2.190   8.876  1.00  0.00    +0.296 HD
ENDBRANCH  15  17
ENDBRANCH  14  15
ENDBRANCH   8  14
ENDBRANCH   1   8
TORSDOF 11
ENDMDL
MODEL 4
REMARK VINA RESULT:    -5.384      7.089      9.028
REMARK INTER + INTRA:          -9.061
REMARK INTER:                  -8.156
REMARK INTRA:                  -0.905
REMARK UNBOUND:                -0.529
REMARK SMILES CCN(CC)CCN(CC(=O)O)CC(=O)O
REMARK SMILES IDX 7 1 6 2 3 3 2 4 1 5 4 6 5 7 8 8 9 9 10 10 11 11 12 12 13 14
REMARK SMILES IDX 14 15 15 16 16 17
REMARK H PARENT 12 13 16 18
ROOT
ATOM      1  C   UNL     1     -27.710   2.237  12.064  1.00  0.00    +0.101 C 
ENDROOT
BRANCH   1   2
ATOM      2  C   UNL     1     -28.249   0.794  12.258  1.00  0.00    +0.100 C 
BRANCH   2   3
ATOM      3  N   UNL     1     -29.575   0.601  11.621  1.00  0.00    -0.303 NA
BRANCH   3   4
ATOM      4  C   UNL     1     -30.415  -0.288  12.450  1.00  0.00    +0.081 C 
ATOM      5  C   UNL     1     -30.529   0.212  13.887  1.00  0.00    +0.021 C 
ENDBRANCH   3   4
BRANCH   3   6
ATOM      6  C   UNL     1     -29.421   0.047  10.261  1.00  0.00    +0.081 C 
ATOM      7  C   UNL     1     -30.663  -0.719   9.815  1.00  0.00    +0.021 C 
ENDBRANCH   3   6
ENDBRANCH   2   3
ENDBRANCH   1   2
BRANCH   1   8
ATOM      8  N   UNL     1     -26.710   2.330  10.976  1.00  0.00    -0.281 NA
BRANCH   8   9
ATOM      9  C   UNL     1     -25.921   3.589  11.093  1.00  0.00    +0.208 C 
BRANCH   9  10
ATOM     10  C   UNL     1     -25.769   4.305   9.754  1.00  0.00    +0.317 C 
ATOM     11  O   UNL     1     -25.006   4.049   8.835  1.00  0.00    -0.251 OA
BRANCH  10  12
ATOM     12  O   UNL     1     -26.645   5.327   9.633  1.00  0.00    -0.480 OA
ATOM     13  H   UNL     1     -26.366   5.949  10.337  1.00  0.00    +0.296 HD
ENDBRANCH  10  12
ENDBRANCH   9  10
ENDBRANCH   8   9
BRANCH   8  14
ATOM     14  C   UNL     1     -25.827   1.136  11.026  1.00  0.00    +0.208 C 
BRANCH  14  15
ATOM     15  C   UNL     1     -25.512   0.578   9.649  1.00  0.00    +0.317 C 
ATOM     16  O   UNL     1     -26.164  -0.272   9.058  1.00  0.00    -0.251 OA
BRANCH  15  17
ATOM     17  O   UNL     1     -24.381   1.078   9.115  1.00  0.00    -0.480 OA
ATOM     18  H   UNL     1     -24.675   1.503   8.284  1.00  0.00    +0.296 HD
ENDBRANCH  15  17
ENDBRANCH  14  15
ENDBRANCH   8  14
ENDBRANCH   1   8
TORSDOF 11
ENDMDL
MODEL 5
REMARK VINA RESULT:    -5.270      2.369      5.144
REMARK INTER + INTRA:          -8.881
REMARK INTER:                  -8.755
REMARK INTRA:                  -0.126
REMARK UNBOUND:                -0.529
REMARK SMILES CCN(CC)CCN(CC(=O)O)CC(=O)O
REMARK SMILES IDX 7 1 6 2 3 3 2 4 1 5 4 6 5 7 8 8 9 9 10 10 11 11 12 12 13 14
REMARK SMILES IDX 14 15 15 16 16 17
REMARK H PARENT 12 13 16 18
ROOT
ATOM      1  C   UNL     1     -28.332   8.866   6.569  1.00  0.00    +0.101 C 
ENDROOT
BRANCH   1   2
ATOM      2  C   UNL     1     -28.140   7.966   7.818  1.00  0.00    +0.100 C 
BRANCH   2   3
ATOM      3  N   UNL     1     -26.803   7.323   7.845  1.00  0.00    -0.303 NA
BRANCH   3   4
ATOM      4  C   UNL     1     -26.118   7.514   6.550  1.00  0.00    +0.081 C 
ATOM      5  C   UNL     1     -24.694   8.031   6.728  1.00  0.00    +0.021 C 
ENDBRANCH   3   4
BRANCH   3   6
ATOM      6  C   UNL     1     -26.925   5.886   8.159  1.00  0.00    +0.081 C 
ATOM      7  C   UNL     1     -25.649   5.331   8.788  1.00  0.00    +0.021 C 
ENDBRANCH   3   6
ENDBRANCH   2   3
ENDBRANCH   1   2
BRANCH   1   8
ATOM      8  N   UNL     1     -28.261  10.310   6.891  1.00  0.00    -0.281 NA
BRANCH   8   9
ATOM      9  C   UNL     1     -27.987  11.110   5.663  1.00  0.00    +0.208 C 
BRANCH   9  10
ATOM     10  C   UNL     1     -26.692  10.688   4.973  1.00  0.00    +0.317 C 
ATOM     11  O   UNL     1     -26.545   9.925   4.032  1.00  0.00    -0.251 OA
BRANCH  10  12
ATOM     12  O   UNL     1     -25.617  11.304   5.514  1.00  0.00    -0.480 OA
ATOM     13  H   UNL     1     -25.095  10.562   5.886  1.00  0.00    +0.296 HD
ENDBRANCH  10  12
ENDBRANCH   9  10
ENDBRANCH   8   9
BRANCH   8  14
ATOM     14  C   UNL     1     -29.538  10.727   7.529  1.00  0.00    +0.208 C 
BRANCH  14  15
ATOM     15  C   UNL     1     -30.752  10.428   6.668  1.00  0.00    +0.317 C 
ATOM     16  O   UNL     1     -31.208   9.316   6.441  1.00  0.00    -0.251 OA
BRANCH  15  17
ATOM     17  O   UNL     1     -31.292  11.526   6.105  1.00  0.00    -0.480 OA
ATOM     18  H   UNL     1     -31.470  11.259   5.181  1.00  0.00    +0.296 HD
ENDBRANCH  15  17
ENDBRANCH  14  15
ENDBRANCH   8  14
ENDBRANCH   1   8
TORSDOF 11
ENDMDL
MODEL 6
REMARK VINA RESULT:    -5.188      7.554      9.312
REMARK INTER + INTRA:          -8.750
REMARK INTER:                  -7.998
REMARK INTRA:                  -0.752
REMARK UNBOUND:                -0.529
REMARK SMILES CCN(CC)CCN(CC(=O)O)CC(=O)O
REMARK SMILES IDX 7 1 6 2 3 3 2 4 1 5 4 6 5 7 8 8 9 9 10 10 11 11 12 12 13 14
REMARK SMILES IDX 14 15 15 16 16 17
REMARK H PARENT 12 13 16 18
ROOT
ATOM      1  C   UNL     1     -27.960   2.121  12.846  1.00  0.00    +0.101 C 
ENDROOT
BRANCH   1   2
ATOM      2  C   UNL     1     -27.904   0.603  13.166  1.00  0.00    +0.100 C 
BRANCH   2   3
ATOM      3  N   UNL     1     -29.236   0.057  13.524  1.00  0.00    -0.303 NA
BRANCH   3   4
ATOM      4  C   UNL     1     -30.076  -0.073  12.316  1.00  0.00    +0.081 C 
ATOM      5  C   UNL     1     -31.435   0.600  12.490  1.00  0.00    +0.021 C 
ENDBRANCH   3   4
BRANCH   3   6
ATOM      6  C   UNL     1     -29.898   0.919  14.524  1.00  0.00    +0.081 C 
ATOM      7  C   UNL     1     -29.443   0.594  15.944  1.00  0.00    +0.021 C 
ENDBRANCH   3   6
ENDBRANCH   2   3
ENDBRANCH   1   2
BRANCH   1   8
ATOM      8  N   UNL     1     -27.141   2.485  11.667  1.00  0.00    -0.281 NA
BRANCH   8   9
ATOM      9  C   UNL     1     -26.169   3.560  12.014  1.00  0.00    +0.208 C 
BRANCH   9  10
ATOM     10  C   UNL     1     -25.555   4.208  10.775  1.00  0.00    +0.317 C 
ATOM     11  O   UNL     1     -26.117   4.800   9.867  1.00  0.00    -0.251 OA
BRANCH  10  12
ATOM     12  O   UNL     1     -24.208   4.095  10.770  1.00  0.00    -0.480 OA
ATOM     13  H   UNL     1     -24.050   3.248  11.237  1.00  0.00    +0.296 HD
ENDBRANCH  10  12
ENDBRANCH   9  10
ENDBRANCH   8   9
BRANCH   8  14
ATOM     14  C   UNL     1     -26.443   1.271  11.168  1.00  0.00    +0.208 C 
BRANCH  14  15
ATOM     15  C   UNL     1     -26.733   0.986   9.705  1.00  0.00    +0.317 C 
ATOM     16  O   UNL     1     -26.005   1.275   8.765  1.00  0.00    -0.251 OA
BRANCH  15  17
ATOM     17  O   UNL     1     -27.930   0.402   9.500  1.00  0.00    -0.480 OA
ATOM     18  H   UNL     1     -28.574   1.051   9.847  1.00  0.00    +0.296 HD
ENDBRANCH  15  17
ENDBRANCH  14  15
ENDBRANCH   8  14
ENDBRANCH   1   8
TORSDOF 11
ENDMDL
MODEL 7
REMARK VINA RESULT:    -5.063      6.614      8.889
REMARK INTER + INTRA:          -8.552
REMARK INTER:                  -7.633
REMARK INTRA:                  -0.919
REMARK UNBOUND:                -0.529
REMARK SMILES CCN(CC)CCN(CC(=O)O)CC(=O)O
REMARK SMILES IDX 7 1 6 2 3 3 2 4 1 5 4 6 5 7 8 8 9 9 10 10 11 11 12 12 13 14
REMARK SMILES IDX 14 15 15 16 16 17
REMARK H PARENT 12 13 16 18
ROOT
ATOM      1  C   UNL     1     -35.187   4.783   7.812  1.00  0.00    +0.101 C 
ENDROOT
BRANCH   1   2
ATOM      2  C   UNL     1     -34.486   6.161   7.671  1.00  0.00    +0.100 C 
BRANCH   2   3
ATOM      3  N   UNL     1     -33.226   6.071   6.894  1.00  0.00    -0.303 NA
BRANCH   3   4
ATOM      4  C   UNL     1     -32.144   6.798   7.589  1.00  0.00    +0.081 C 
ATOM      5  C   UNL     1     -31.578   5.996   8.758  1.00  0.00    +0.021 C 
ENDBRANCH   3   4
BRANCH   3   6
ATOM      6  C   UNL     1     -33.417   6.609   5.532  1.00  0.00    +0.081 C 
ATOM      7  C   UNL     1     -32.176   7.343   5.031  1.00  0.00    +0.021 C 
ENDBRANCH   3   6
ENDBRANCH   2   3
ENDBRANCH   1   2
BRANCH   1   8
ATOM      8  N   UNL     1     -34.947   4.153   9.130  1.00  0.00    -0.281 NA
BRANCH   8   9
ATOM      9  C   UNL     1     -36.081   4.426  10.058  1.00  0.00    +0.208 C 
BRANCH   9  10
ATOM     10  C   UNL     1     -35.707   5.421  11.154  1.00  0.00    +0.317 C 
ATOM     11  O   UNL     1     -36.444   6.121  11.830  1.00  0.00    -0.251 OA
BRANCH  10  12
ATOM     12  O   UNL     1     -34.372   5.452  11.365  1.00  0.00    -0.480 OA
ATOM     13  H   UNL     1     -34.008   5.648  10.476  1.00  0.00    +0.296 HD
ENDBRANCH  10  12
ENDBRANCH   9  10
ENDBRANCH   8   9
BRANCH   8  14
ATOM     14  C   UNL     1     -34.749   2.692   8.940  1.00  0.00    +0.208 C 
BRANCH  14  15
ATOM     15  C   UNL     1     -33.484   2.178   9.604  1.00  0.00    +0.317 C 
ATOM     16  O   UNL     1     -33.066   1.031   9.548  1.00  0.00    -0.251 OA
BRANCH  15  17
ATOM     17  O   UNL     1     -32.847   3.113  10.337  1.00  0.00    -0.480 OA
ATOM     18  H   UNL     1     -33.530   3.436  10.958  1.00  0.00    +0.296 HD
ENDBRANCH  15  17
ENDBRANCH  14  15
ENDBRANCH   8  14
ENDBRANCH   1   8
TORSDOF 11
ENDMDL
MODEL 8
REMARK VINA RESULT:    -4.968      1.642      3.379
REMARK INTER + INTRA:          -8.402
REMARK INTER:                  -7.892
REMARK INTRA:                  -0.509
REMARK UNBOUND:                -0.529
REMARK SMILES CCN(CC)CCN(CC(=O)O)CC(=O)O
REMARK SMILES IDX 7 1 6 2 3 3 2 4 1 5 4 6 5 7 8 8 9 9 10 10 11 11 12 12 13 14
REMARK SMILES IDX 14 15 15 16 16 17
REMARK H PARENT 12 13 16 18
ROOT
ATOM      1  C   UNL     1     -28.454   8.729   6.318  1.00  0.00    +0.101 C 
ENDROOT
BRANCH   1   2
ATOM      2  C   UNL     1     -29.271   9.251   7.530  1.00  0.00    +0.100 C 
BRANCH   2   3
ATOM      3  N   UNL     1     -30.728   9.032   7.358  1.00  0.00    -0.303 NA
BRANCH   3   4
ATOM      4  C   UNL     1     -31.009   8.491   6.013  1.00  0.00    +0.081 C 
ATOM      5  C   UNL     1     -32.117   7.443   6.039  1.00  0.00    +0.021 C 
ENDBRANCH   3   4
BRANCH   3   6
ATOM      6  C   UNL     1     -31.470  10.291   7.574  1.00  0.00    +0.081 C 
ATOM      7  C   UNL     1     -31.231  11.292   6.447  1.00  0.00    +0.021 C 
ENDBRANCH   3   6
ENDBRANCH   2   3
ENDBRANCH   1   2
BRANCH   1   8
ATOM      8  N   UNL     1     -27.292   9.591   5.999  1.00  0.00    -0.281 NA
BRANCH   8   9
ATOM      9  C   UNL     1     -27.693  11.025   5.970  1.00  0.00    +0.208 C 
BRANCH   9  10
ATOM     10  C   UNL     1     -26.882  11.834   4.960  1.00  0.00    +0.317 C 
ATOM     11  O   UNL     1     -25.892  11.494   4.333  1.00  0.00    -0.251 OA
BRANCH  10  12
ATOM     12  O   UNL     1     -27.409  13.064   4.768  1.00  0.00    -0.480 OA
ATOM     13  H   UNL     1     -26.807  13.467   4.108  1.00  0.00    +0.296 HD
ENDBRANCH  10  12
ENDBRANCH   9  10
ENDBRANCH   8   9
BRANCH   8  14
ATOM     14  C   UNL     1     -26.223   9.353   7.005  1.00  0.00    +0.208 C 
BRANCH  14  15
ATOM     15  C   UNL     1     -25.310   8.199   6.631  1.00  0.00    +0.317 C 
ATOM     16  O   UNL     1     -25.618   7.015   6.639  1.00  0.00    -0.251 OA
BRANCH  15  17
ATOM     17  O   UNL     1     -24.058   8.586   6.319  1.00  0.00    -0.480 OA
ATOM     18  H   UNL     1     -24.014   9.517   6.618  1.00  0.00    +0.296 HD
ENDBRANCH  15  17
ENDBRANCH  14  15
ENDBRANCH   8  14
ENDBRANCH   1   8
TORSDOF 11
ENDMDL
MODEL 9
REMARK VINA RESULT:    -4.710      2.588      4.985
REMARK INTER + INTRA:          -7.993
REMARK INTER:                  -8.039
REMARK INTRA:                   0.046
REMARK UNBOUND:                -0.529
REMARK SMILES CCN(CC)CCN(CC(=O)O)CC(=O)O
REMARK SMILES IDX 7 1 6 2 3 3 2 4 1 5 4 6 5 7 8 8 9 9 10 10 11 11 12 12 13 14
REMARK SMILES IDX 14 15 15 16 16 17
REMARK H PARENT 12 13 16 18
ROOT
ATOM      1  C   UNL     1     -27.372   9.144   5.676  1.00  0.00    +0.101 C 
ENDROOT
BRANCH   1   2
ATOM      2  C   UNL     1     -26.977   8.612   7.079  1.00  0.00    +0.100 C 
BRANCH   2   3
ATOM      3  N   UNL     1     -26.563   7.187   7.042  1.00  0.00    -0.303 NA
BRANCH   3   4
ATOM      4  C   UNL     1     -27.286   6.419   8.076  1.00  0.00    +0.081 C 
ATOM      5  C   UNL     1     -28.687   6.970   8.323  1.00  0.00    +0.021 C 
ENDBRANCH   3   4
BRANCH   3   6
ATOM      6  C   UNL     1     -25.104   7.066   7.232  1.00  0.00    +0.081 C 
ATOM      7  C   UNL     1     -24.344   8.190   6.532  1.00  0.00    +0.021 C 
ENDBRANCH   3   6
ENDBRANCH   2   3
ENDBRANCH   1   2
BRANCH   1   8
ATOM      8  N   UNL     1     -28.323  10.278   5.743  1.00  0.00    -0.281 NA
BRANCH   8   9
ATOM      9  C   UNL     1     -29.221  10.142   6.924  1.00  0.00    +0.208 C 
BRANCH   9  10
ATOM     10  C   UNL     1     -30.316  11.207   6.946  1.00  0.00    +0.317 C 
ATOM     11  O   UNL     1     -30.376  12.222   7.619  1.00  0.00    -0.251 OA
BRANCH  10  12
ATOM     12  O   UNL     1     -31.295  10.932   6.056  1.00  0.00    -0.480 OA
ATOM     13  H   UNL     1     -31.198  11.641   5.386  1.00  0.00    +0.296 HD
ENDBRANCH  10  12
ENDBRANCH   9  10
ENDBRANCH   8   9
BRANCH   8  14
ATOM     14  C   UNL     1     -27.556  11.550   5.795  1.00  0.00    +0.208 C 
BRANCH  14  15
ATOM     15  C   UNL     1     -26.277  11.501   4.978  1.00  0.00    +0.317 C 
ATOM     16  O   UNL     1     -26.212  11.483   3.757  1.00  0.00    -0.251 OA
BRANCH  15  17
ATOM     17  O   UNL     1     -25.163  11.428   5.732  1.00  0.00    -0.480 OA
ATOM     18  H   UNL     1     -25.356  10.716   6.376  1.00  0.00    +0.296 HD
ENDBRANCH  15  17
ENDBRANCH  14  15
ENDBRANCH   8  14
ENDBRANCH   1   8
TORSDOF 11
ENDMDL
