REMARK SMILES CC(=O)Nc1ccc2c(O)ccnc2n1
REMARK SMILES IDX 5 1 15 2 14 3 8 4 7 5 6 6 9 7 11 8 12 9 13 10 4 11 2 12 3 13
REMARK SMILES IDX 1 14 10 16
REMARK H PARENT 4 15 10 17
ROOT
ATOM      1  C   UNL     1       0.978  -0.436   0.002  1.00  0.00    +0.135 A 
ATOM      2  N   UNL     1       0.373   0.714  -0.338  1.00  0.00    -0.211 NA
ATOM      3  C   UNL     1      -0.957   0.816  -0.288  1.00  0.00    +0.165 A 
ATOM      4  C   UNL     1      -1.754  -0.266   0.116  1.00  0.00    +0.061 A 
ATOM      5  C   UNL     1      -1.120  -1.467   0.469  1.00  0.00    +0.020 A 
ATOM      6  C   UNL     1       0.264  -1.552   0.410  1.00  0.00    +0.048 A 
ATOM      7  C   UNL     1      -3.149  -0.093   0.147  1.00  0.00    +0.128 A 
ATOM      8  C   UNL     1      -3.718   1.115  -0.213  1.00  0.00    +0.067 A 
ATOM      9  C   UNL     1      -2.855   2.117  -0.595  1.00  0.00    +0.117 A 
ATOM     10  N   UNL     1      -1.513   1.981  -0.635  1.00  0.00    -0.236 NA
ENDROOT
BRANCH   1  11
ATOM     11  N   UNL     1       2.374  -0.562  -0.047  1.00  0.00    -0.311 N 
ATOM     12  C   UNL     1       3.260   0.433  -0.410  1.00  0.00    +0.222 C 
ATOM     13  O   UNL     1       3.008   1.590  -0.722  1.00  0.00    -0.275 OA
ATOM     14  C   UNL     1       4.692  -0.044  -0.358  1.00  0.00    +0.114 C 
ATOM     15  H   UNL     1       2.758  -1.456   0.216  1.00  0.00    +0.171 HD
ENDBRANCH   1  11
BRANCH   7  16
ATOM     16  O   UNL     1      -3.947  -1.137   0.538  1.00  0.00    -0.507 OA
ATOM     17  H   UNL     1      -4.878  -0.859   0.507  1.00  0.00    +0.293 HD
ENDBRANCH   7  16
TORSDOF 2
