MODEL 1
REMARK VINA RESULT:    -9.373      0.000      0.000
REMARK INTER + INTRA:          -9.643
REMARK INTER:                  -9.921
REMARK INTRA:                   0.279
REMARK UNBOUND:                 0.279
REMARK SMILES C1=Cc2ccccc2C1=Cc1ccccc1
REMARK SMILES IDX 10 1 9 2 1 3 2 4 3 5 8 6 7 7 6 8 5 9 4 10 11 11 14 12 13 13
REMARK SMILES IDX 15 14 12 15 16 16
REMARK H PARENT
ROOT
ATOM      1  C   UNL     1     -27.645  10.101   6.383  1.00  0.00    +0.016 C 
ATOM      2  C   UNL     1     -26.725   9.146   6.595  1.00  0.00    -0.017 C 
ATOM      3  C   UNL     1     -25.351   9.262   6.120  1.00  0.00    +0.009 C 
ATOM      4  C   UNL     1     -24.650   8.172   6.467  1.00  0.00    +0.009 C 
ATOM      5  C   UNL     1     -25.546   7.279   7.196  1.00  0.00    -0.018 A 
ATOM      6  C   UNL     1     -26.830   7.853   7.289  1.00  0.00    -0.011 A 
ATOM      7  C   UNL     1     -27.852   7.185   7.941  1.00  0.00    +0.009 A 
ATOM      8  C   UNL     1     -27.578   5.932   8.501  1.00  0.00    +0.001 A 
ATOM      9  C   UNL     1     -26.298   5.364   8.405  1.00  0.00    +0.001 A 
ATOM     10  C   UNL     1     -25.267   6.039   7.747  1.00  0.00    +0.009 A 
ENDROOT
BRANCH   1  11
ATOM     11  C   UNL     1     -29.039  10.072   6.820  1.00  0.00    -0.025 A 
ATOM     12  C   UNL     1     -31.707  10.013   7.658  1.00  0.00    +0.000 A 
ATOM     13  C   UNL     1     -30.945  11.169   7.835  1.00  0.00    +0.001 A 
ATOM     14  C   UNL     1     -31.139   8.888   7.063  1.00  0.00    +0.001 A 
ATOM     15  C   UNL     1     -29.614  11.199   7.417  1.00  0.00    +0.008 A 
ATOM     16  C   UNL     1     -29.808   8.916   6.644  1.00  0.00    +0.008 A 
ENDBRANCH   1  11
TORSDOF 1
ENDMDL
MODEL 2
REMARK VINA RESULT:    -9.322      1.454      5.577
REMARK INTER + INTRA:          -9.589
REMARK INTER:                 -10.782
REMARK INTRA:                   1.194
REMARK UNBOUND:                 0.279
REMARK SMILES C1=Cc2ccccc2C1=Cc1ccccc1
REMARK SMILES IDX 10 1 9 2 1 3 2 4 3 5 8 6 7 7 6 8 5 9 4 10 11 11 14 12 13 13
REMARK SMILES IDX 15 14 12 15 16 16
REMARK H PARENT
ROOT
ATOM      1  C   UNL     1     -29.106   8.452   7.457  1.00  0.00    +0.016 C 
ATOM      2  C   UNL     1     -29.329   9.691   6.991  1.00  0.00    -0.017 C 
ATOM      3  C   UNL     1     -30.633  10.338   7.081  1.00  0.00    +0.009 C 
ATOM      4  C   UNL     1     -30.577  11.565   6.541  1.00  0.00    +0.009 C 
ATOM      5  C   UNL     1     -29.214  11.781   6.068  1.00  0.00    -0.018 A 
ATOM      6  C   UNL     1     -28.424  10.645   6.331  1.00  0.00    -0.011 A 
ATOM      7  C   UNL     1     -27.088  10.618   5.969  1.00  0.00    +0.009 A 
ATOM      8  C   UNL     1     -26.546  11.743   5.337  1.00  0.00    +0.001 A 
ATOM      9  C   UNL     1     -27.337  12.873   5.076  1.00  0.00    +0.001 A 
ATOM     10  C   UNL     1     -28.685  12.899   5.443  1.00  0.00    +0.009 A 
ENDROOT
BRANCH   1  11
ATOM     11  C   UNL     1     -27.837   7.727   7.412  1.00  0.00    -0.025 A 
ATOM     12  C   UNL     1     -25.412   6.336   7.324  1.00  0.00    +0.000 A 
ATOM     13  C   UNL     1     -25.625   7.423   6.474  1.00  0.00    +0.001 A 
ATOM     14  C   UNL     1     -26.408   5.945   8.218  1.00  0.00    +0.001 A 
ATOM     15  C   UNL     1     -26.834   8.117   6.518  1.00  0.00    +0.008 A 
ATOM     16  C   UNL     1     -27.618   6.638   8.263  1.00  0.00    +0.008 A 
ENDBRANCH   1  11
TORSDOF 1
ENDMDL
MODEL 3
REMARK VINA RESULT:    -9.306      1.448      5.283
REMARK INTER + INTRA:          -9.571
REMARK INTER:                  -9.476
REMARK INTRA:                  -0.096
REMARK UNBOUND:                 0.279
REMARK SMILES C1=Cc2ccccc2C1=Cc1ccccc1
REMARK SMILES IDX 10 1 9 2 1 3 2 4 3 5 8 6 7 7 6 8 5 9 4 10 11 11 14 12 13 13
REMARK SMILES IDX 15 14 12 15 16 16
REMARK H PARENT
ROOT
ATOM      1  C   UNL     1     -26.042  10.451   5.737  1.00  0.00    +0.016 C 
ATOM      2  C   UNL     1     -27.208  11.117   5.763  1.00  0.00    -0.017 C 
ATOM      3  C   UNL     1     -27.357  12.457   5.208  1.00  0.00    +0.009 C 
ATOM      4  C   UNL     1     -28.619  12.884   5.367  1.00  0.00    +0.009 C 
ATOM      5  C   UNL     1     -29.365  11.826   6.042  1.00  0.00    -0.018 A 
ATOM      6  C   UNL     1     -28.522  10.727   6.298  1.00  0.00    -0.011 A 
ATOM      7  C   UNL     1     -29.011   9.599   6.934  1.00  0.00    +0.009 A 
ATOM      8  C   UNL     1     -30.357   9.580   7.315  1.00  0.00    +0.001 A 
ATOM      9  C   UNL     1     -31.194  10.677   7.058  1.00  0.00    +0.001 A 
ATOM     10  C   UNL     1     -30.699  11.815   6.415  1.00  0.00    +0.009 A 
ENDROOT
BRANCH   1  11
ATOM     11  C   UNL     1     -25.799   9.110   6.265  1.00  0.00    -0.025 A 
ATOM     12  C   UNL     1     -25.334   6.543   7.274  1.00  0.00    +0.000 A 
ATOM     13  C   UNL     1     -24.570   7.620   7.726  1.00  0.00    +0.001 A 
ATOM     14  C   UNL     1     -26.330   6.747   6.319  1.00  0.00    +0.001 A 
ATOM     15  C   UNL     1     -24.802   8.901   7.224  1.00  0.00    +0.008 A 
ATOM     16  C   UNL     1     -26.564   8.027   5.816  1.00  0.00    +0.008 A 
ENDBRANCH   1  11
TORSDOF 1
ENDMDL
MODEL 4
REMARK VINA RESULT:    -9.118      3.175      5.731
REMARK INTER + INTRA:          -9.372
REMARK INTER:                  -8.865
REMARK INTRA:                  -0.507
REMARK UNBOUND:                 0.279
REMARK SMILES C1=Cc2ccccc2C1=Cc1ccccc1
REMARK SMILES IDX 10 1 9 2 1 3 2 4 3 5 8 6 7 7 6 8 5 9 4 10 11 11 14 12 13 13
REMARK SMILES IDX 15 14 12 15 16 16
REMARK H PARENT
ROOT
ATOM      1  C   UNL     1     -32.120   8.134   5.567  1.00  0.00    +0.016 C 
ATOM      2  C   UNL     1     -32.741   7.053   6.064  1.00  0.00    -0.017 C 
ATOM      3  C   UNL     1     -33.759   6.322   5.318  1.00  0.00    +0.009 C 
ATOM      4  C   UNL     1     -34.212   5.290   6.046  1.00  0.00    +0.009 C 
ATOM      5  C   UNL     1     -33.500   5.298   7.321  1.00  0.00    -0.018 A 
ATOM      6  C   UNL     1     -32.589   6.372   7.360  1.00  0.00    -0.011 A 
ATOM      7  C   UNL     1     -31.798   6.581   8.476  1.00  0.00    +0.009 A 
ATOM      8  C   UNL     1     -31.926   5.704   9.559  1.00  0.00    +0.001 A 
ATOM      9  C   UNL     1     -32.836   4.635   9.515  1.00  0.00    +0.001 A 
ATOM     10  C   UNL     1     -33.634   4.424   8.388  1.00  0.00    +0.009 A 
ENDROOT
BRANCH   1  11
ATOM     11  C   UNL     1     -31.091   8.926   6.239  1.00  0.00    -0.025 A 
ATOM     12  C   UNL     1     -29.121  10.442   7.522  1.00  0.00    +0.000 A 
ATOM     13  C   UNL     1     -30.414  10.949   7.387  1.00  0.00    +0.001 A 
ATOM     14  C   UNL     1     -28.812   9.179   7.019  1.00  0.00    +0.001 A 
ATOM     15  C   UNL     1     -31.397  10.193   6.747  1.00  0.00    +0.008 A 
ATOM     16  C   UNL     1     -29.793   8.421   6.379  1.00  0.00    +0.008 A 
ENDBRANCH   1  11
TORSDOF 1
ENDMDL
MODEL 5
REMARK VINA RESULT:    -9.112      4.857      7.424
REMARK INTER + INTRA:          -9.365
REMARK INTER:                  -8.699
REMARK INTRA:                  -0.667
REMARK UNBOUND:                 0.279
REMARK SMILES C1=Cc2ccccc2C1=Cc1ccccc1
REMARK SMILES IDX 10 1 9 2 1 3 2 4 3 5 8 6 7 7 6 8 5 9 4 10 11 11 14 12 13 13
REMARK SMILES IDX 15 14 12 15 16 16
REMARK H PARENT
ROOT
ATOM      1  C   UNL     1     -34.719   4.746   7.313  1.00  0.00    +0.016 C 
ATOM      2  C   UNL     1     -33.995   5.614   6.590  1.00  0.00    -0.017 C 
ATOM      3  C   UNL     1     -34.329   5.955   5.212  1.00  0.00    +0.009 C 
ATOM      4  C   UNL     1     -33.444   6.842   4.730  1.00  0.00    +0.009 C 
ATOM      5  C   UNL     1     -32.478   7.127   5.786  1.00  0.00    -0.018 A 
ATOM      6  C   UNL     1     -32.793   6.385   6.942  1.00  0.00    -0.011 A 
ATOM      7  C   UNL     1     -32.011   6.493   8.080  1.00  0.00    +0.009 A 
ATOM      8  C   UNL     1     -30.907   7.352   8.052  1.00  0.00    +0.001 A 
ATOM      9  C   UNL     1     -30.598   8.089   6.898  1.00  0.00    +0.001 A 
ATOM     10  C   UNL     1     -31.387   7.980   5.750  1.00  0.00    +0.009 A 
ENDROOT
BRANCH   1  11
ATOM     11  C   UNL     1     -34.463   4.345   8.695  1.00  0.00    -0.025 A 
ATOM     12  C   UNL     1     -33.969   3.579  11.339  1.00  0.00    +0.000 A 
ATOM     13  C   UNL     1     -34.815   4.656  11.072  1.00  0.00    +0.001 A 
ATOM     14  C   UNL     1     -33.370   2.885  10.289  1.00  0.00    +0.001 A 
ATOM     15  C   UNL     1     -35.062   5.038   9.753  1.00  0.00    +0.008 A 
ATOM     16  C   UNL     1     -33.616   3.265   8.970  1.00  0.00    +0.008 A 
ENDBRANCH   1  11
TORSDOF 1
ENDMDL
MODEL 6
REMARK VINA RESULT:    -8.692      6.956     10.006
REMARK INTER + INTRA:          -8.921
REMARK INTER:                  -8.295
REMARK INTRA:                  -0.627
REMARK UNBOUND:                 0.279
REMARK SMILES C1=Cc2ccccc2C1=Cc1ccccc1
REMARK SMILES IDX 10 1 9 2 1 3 2 4 3 5 8 6 7 7 6 8 5 9 4 10 11 11 14 12 13 13
REMARK SMILES IDX 15 14 12 15 16 16
REMARK H PARENT
ROOT
ATOM      1  C   UNL     1     -34.276   3.446   8.624  1.00  0.00    +0.016 C 
ATOM      2  C   UNL     1     -35.409   3.350   9.336  1.00  0.00    -0.017 C 
ATOM      3  C   UNL     1     -35.737   2.172  10.130  1.00  0.00    +0.009 C 
ATOM      4  C   UNL     1     -36.923   2.340  10.737  1.00  0.00    +0.009 C 
ATOM      5  C   UNL     1     -37.431   3.656  10.363  1.00  0.00    -0.018 A 
ATOM      6  C   UNL     1     -36.521   4.300   9.501  1.00  0.00    -0.011 A 
ATOM      7  C   UNL     1     -36.791   5.567   9.013  1.00  0.00    +0.009 A 
ATOM      8  C   UNL     1     -37.986   6.187   9.394  1.00  0.00    +0.001 A 
ATOM      9  C   UNL     1     -38.890   5.542  10.253  1.00  0.00    +0.001 A 
ATOM     10  C   UNL     1     -38.616   4.264  10.745  1.00  0.00    +0.009 A 
ENDROOT
BRANCH   1  11
ATOM     11  C   UNL     1     -33.864   4.583   7.803  1.00  0.00    -0.025 A 
ATOM     12  C   UNL     1     -33.078   6.760   6.232  1.00  0.00    +0.000 A 
ATOM     13  C   UNL     1     -32.579   6.619   7.527  1.00  0.00    +0.001 A 
ATOM     14  C   UNL     1     -33.967   5.816   5.720  1.00  0.00    +0.001 A 
ATOM     15  C   UNL     1     -32.971   5.533   8.311  1.00  0.00    +0.008 A 
ATOM     16  C   UNL     1     -34.360   4.729   6.502  1.00  0.00    +0.008 A 
ENDBRANCH   1  11
TORSDOF 1
ENDMDL
MODEL 7
REMARK VINA RESULT:    -8.360      6.844      9.970
REMARK INTER + INTRA:          -8.570
REMARK INTER:                  -7.905
REMARK INTRA:                  -0.665
REMARK UNBOUND:                 0.279
REMARK SMILES C1=Cc2ccccc2C1=Cc1ccccc1
REMARK SMILES IDX 10 1 9 2 1 3 2 4 3 5 8 6 7 7 6 8 5 9 4 10 11 11 14 12 13 13
REMARK SMILES IDX 15 14 12 15 16 16
REMARK H PARENT
ROOT
ATOM      1  C   UNL     1     -27.686   1.955  13.164  1.00  0.00    +0.016 C 
ATOM      2  C   UNL     1     -28.828   1.252  13.113  1.00  0.00    -0.017 C 
ATOM      3  C   UNL     1     -29.721   1.125  14.258  1.00  0.00    +0.009 C 
ATOM      4  C   UNL     1     -30.784   0.371  13.933  1.00  0.00    +0.009 C 
ATOM      5  C   UNL     1     -30.632  -0.034  12.539  1.00  0.00    -0.018 A 
ATOM      6  C   UNL     1     -29.438   0.494  12.009  1.00  0.00    -0.011 A 
ATOM      7  C   UNL     1     -29.081   0.241  10.695  1.00  0.00    +0.009 A 
ATOM      8  C   UNL     1     -29.931  -0.548   9.913  1.00  0.00    +0.001 A 
ATOM      9  C   UNL     1     -31.120  -1.072  10.446  1.00  0.00    +0.001 A 
ATOM     10  C   UNL     1     -31.480  -0.815  11.771  1.00  0.00    +0.009 A 
ENDROOT
BRANCH   1  11
ATOM     11  C   UNL     1     -26.733   2.138  12.071  1.00  0.00    -0.025 A 
ATOM     12  C   UNL     1     -24.910   2.485   9.978  1.00  0.00    +0.000 A 
ATOM     13  C   UNL     1     -25.935   3.412  10.172  1.00  0.00    +0.001 A 
ATOM     14  C   UNL     1     -24.794   1.386  10.828  1.00  0.00    +0.001 A 
ATOM     15  C   UNL     1     -26.844   3.240  11.216  1.00  0.00    +0.008 A 
ATOM     16  C   UNL     1     -25.702   1.212  11.873  1.00  0.00    +0.008 A 
ENDBRANCH   1  11
TORSDOF 1
ENDMDL
MODEL 8
REMARK VINA RESULT:    -7.448     10.146     12.297
REMARK INTER + INTRA:          -7.604
REMARK INTER:                  -7.193
REMARK INTRA:                  -0.411
REMARK UNBOUND:                 0.279
REMARK SMILES C1=Cc2ccccc2C1=Cc1ccccc1
REMARK SMILES IDX 10 1 9 2 1 3 2 4 3 5 8 6 7 7 6 8 5 9 4 10 11 11 14 12 13 13
REMARK SMILES IDX 15 14 12 15 16 16
REMARK H PARENT
ROOT
ATOM      1  C   UNL     1     -20.491   7.512   0.345  1.00  0.00    +0.016 C 
ATOM      2  C   UNL     1     -19.775   6.644  -0.387  1.00  0.00    -0.017 C 
ATOM      3  C   UNL     1     -19.829   5.203  -0.167  1.00  0.00    +0.009 C 
ATOM      4  C   UNL     1     -19.019   4.574  -1.033  1.00  0.00    +0.009 C 
ATOM      5  C   UNL     1     -18.389   5.590  -1.872  1.00  0.00    -0.018 A 
ATOM      6  C   UNL     1     -18.836   6.872  -1.497  1.00  0.00    -0.011 A 
ATOM      7  C   UNL     1     -18.373   7.998  -2.156  1.00  0.00    +0.009 A 
ATOM      8  C   UNL     1     -17.454   7.830  -3.198  1.00  0.00    +0.001 A 
ATOM      9  C   UNL     1     -17.011   6.550  -3.568  1.00  0.00    +0.001 A 
ATOM     10  C   UNL     1     -17.480   5.414  -2.902  1.00  0.00    +0.009 A 
ENDROOT
BRANCH   1  11
ATOM     11  C   UNL     1     -20.502   8.966   0.196  1.00  0.00    -0.025 A 
ATOM     12  C   UNL     1     -20.524  11.749  -0.086  1.00  0.00    +0.000 A 
ATOM     13  C   UNL     1     -19.381  11.105   0.390  1.00  0.00    +0.001 A 
ATOM     14  C   UNL     1     -21.655  11.005  -0.421  1.00  0.00    +0.001 A 
ATOM     15  C   UNL     1     -19.369   9.717   0.530  1.00  0.00    +0.008 A 
ATOM     16  C   UNL     1     -21.645   9.617  -0.282  1.00  0.00    +0.008 A 
ENDBRANCH   1  11
TORSDOF 1
ENDMDL
MODEL 9
REMARK VINA RESULT:    -7.318     10.146     12.760
REMARK INTER + INTRA:          -7.467
REMARK INTER:                  -6.834
REMARK INTRA:                  -0.633
REMARK UNBOUND:                 0.279
REMARK SMILES C1=Cc2ccccc2C1=Cc1ccccc1
REMARK SMILES IDX 10 1 9 2 1 3 2 4 3 5 8 6 7 7 6 8 5 9 4 10 11 11 14 12 13 13
REMARK SMILES IDX 15 14 12 15 16 16
REMARK H PARENT
ROOT
ATOM      1  C   UNL     1     -20.835   8.180   0.252  1.00  0.00    +0.016 C 
ATOM      2  C   UNL     1     -20.770   9.282  -0.511  1.00  0.00    -0.017 C 
ATOM      3  C   UNL     1     -21.602  10.454  -0.267  1.00  0.00    +0.009 C 
ATOM      4  C   UNL     1     -21.336  11.407  -1.174  1.00  0.00    +0.009 C 
ATOM      5  C   UNL     1     -20.301  10.893  -2.067  1.00  0.00    -0.018 A 
ATOM      6  C   UNL     1     -19.934   9.588  -1.683  1.00  0.00    -0.011 A 
ATOM      7  C   UNL     1     -18.964   8.896  -2.387  1.00  0.00    +0.009 A 
ATOM      8  C   UNL     1     -18.362   9.521  -3.484  1.00  0.00    +0.001 A 
ATOM      9  C   UNL     1     -18.732  10.822  -3.864  1.00  0.00    +0.001 A 
ATOM     10  C   UNL     1     -19.710  11.520  -3.152  1.00  0.00    +0.009 A 
ENDROOT
BRANCH   1  11
ATOM     11  C   UNL     1     -20.043   6.963   0.084  1.00  0.00    -0.025 A 
ATOM     12  C   UNL     1     -18.527   4.635  -0.241  1.00  0.00    +0.000 A 
ATOM     13  C   UNL     1     -18.128   5.604   0.681  1.00  0.00    +0.001 A 
ATOM     14  C   UNL     1     -19.680   4.827  -1.000  1.00  0.00    +0.001 A 
ATOM     15  C   UNL     1     -18.885   6.766   0.844  1.00  0.00    +0.008 A 
ATOM     16  C   UNL     1     -20.438   5.988  -0.838  1.00  0.00    +0.008 A 
ENDBRANCH   1  11
TORSDOF 1
ENDMDL
