REMARK SMILES CCCCOB(OCCCC)OCCCC
REMARK SMILES IDX 6 1 5 2 4 3 3 4 2 5 1 6 7 7 8 8 9 9 10 10 11 11 12 12 13 13
REMARK SMILES IDX 14 14 15 15 16 16
REMARK H PARENT
ROOT
ATOM      1  B   UNL     1      -0.129   0.038  -0.179  1.00  0.00    +0.639 B 
ENDROOT
BRANCH   1   2
ATOM      2  O   UNL     1       1.300   0.204  -0.433  1.00  0.00    -0.386 OA
BRANCH   2   3
ATOM      3  C   UNL     1       1.765  -0.966  -1.021  1.00  0.00    +0.144 C 
BRANCH   3   4
ATOM      4  C   UNL     1       3.246  -0.753  -1.267  1.00  0.00    +0.026 C 
BRANCH   4   5
ATOM      5  C   UNL     1       3.866  -0.496   0.106  1.00  0.00    -0.001 C 
ATOM      6  C   UNL     1       5.346  -0.282  -0.129  1.00  0.00    +0.004 C 
ENDBRANCH   4   5
ENDBRANCH   3   4
ENDBRANCH   2   3
ENDBRANCH   1   2
BRANCH   1   7
ATOM      7  O   UNL     1      -0.834   1.246   0.303  1.00  0.00    -0.386 OA
BRANCH   7   8
ATOM      8  C   UNL     1      -0.251   1.787   1.431  1.00  0.00    +0.144 C 
BRANCH   8   9
ATOM      9  C   UNL     1      -1.099   3.013   1.789  1.00  0.00    +0.026 C 
BRANCH   9  10
ATOM     10  C   UNL     1      -0.995   3.911   0.551  1.00  0.00    -0.001 C 
ATOM     11  C   UNL     1      -1.776   5.185   0.718  1.00  0.00    +0.004 C 
ENDBRANCH   9  10
ENDBRANCH   8   9
ENDBRANCH   7   8
ENDBRANCH   1   7
BRANCH   1  12
ATOM     12  O   UNL     1      -0.875  -0.727  -1.181  1.00  0.00    -0.386 OA
BRANCH  12  13
ATOM     13  C   UNL     1      -1.412  -1.811  -0.508  1.00  0.00    +0.144 C 
BRANCH  13  14
ATOM     14  C   UNL     1      -2.212  -2.668  -1.489  1.00  0.00    +0.026 C 
BRANCH  14  15
ATOM     15  C   UNL     1      -2.773  -3.842  -0.675  1.00  0.00    -0.001 C 
ATOM     16  C   UNL     1      -3.656  -3.320   0.429  1.00  0.00    +0.004 C 
ENDBRANCH  14  15
ENDBRANCH  13  14
ENDBRANCH  12  13
ENDBRANCH   1  12
TORSDOF 12
