MODEL 1
REMARK VINA RESULT:    -9.169      0.000      0.000
REMARK INTER + INTRA:         -10.072
REMARK INTER:                 -10.241
REMARK INTRA:                   0.170
REMARK UNBOUND:                 0.170
REMARK SMILES COc1ccc2nc3cc(Cl)ccc3c(C=O)c2c1
REMARK SMILES IDX 3 1 19 2 18 3 15 4 14 5 13 6 12 7 10 8 11 9 9 10 8 11 7 12
REMARK SMILES IDX 6 13 5 14 4 15 2 16 1 17 16 18 17 19
REMARK H PARENT
ROOT
ATOM      1  C   UNL     1     -29.234  11.476   6.096  1.00  0.00    +0.119 A 
ATOM      2  C   UNL     1     -28.013  10.800   6.018  1.00  0.00    +0.057 A 
ATOM      3  C   UNL     1     -27.816   9.526   6.622  1.00  0.00    +0.015 A 
ATOM      4  C   UNL     1     -26.616   8.768   6.596  1.00  0.00    +0.033 A 
ATOM      5  C   UNL     1     -26.529   7.485   7.204  1.00  0.00    +0.011 A 
ATOM      6  C   UNL     1     -25.375   6.655   7.252  1.00  0.00    +0.012 A 
ATOM      7  C   UNL     1     -25.399   5.411   7.882  1.00  0.00    +0.021 A 
ATOM      8  C   UNL     1     -26.571   4.979   8.479  1.00  0.00    +0.043 A 
ATOM      9 Cl   UNL     1     -26.622   3.449   9.262  1.00  0.00    -0.084 Cl
ATOM     10  C   UNL     1     -27.706   5.783   8.451  1.00  0.00    +0.049 A 
ATOM     11  C   UNL     1     -27.701   7.023   7.829  1.00  0.00    +0.073 A 
ATOM     12  N   UNL     1     -28.834   7.734   7.868  1.00  0.00    -0.248 NA
ATOM     13  C   UNL     1     -28.900   8.938   7.288  1.00  0.00    +0.072 A 
ATOM     14  C   UNL     1     -30.105   9.623   7.357  1.00  0.00    +0.033 A 
ATOM     15  C   UNL     1     -30.284  10.882   6.775  1.00  0.00    +0.048 A 
ENDROOT
BRANCH   1  16
ATOM     16  O   UNL     1     -29.258  12.690   5.471  1.00  0.00    -0.497 OA
ATOM     17  C   UNL     1     -28.001  13.256   5.115  1.00  0.00    +0.278 C 
ENDBRANCH   1  16
BRANCH   4  18
ATOM     18  C   UNL     1     -25.427   9.363   5.934  1.00  0.00    +0.261 C 
ATOM     19  O   UNL     1     -25.038  10.503   6.150  1.00  0.00    -0.298 OA
ENDBRANCH   4  18
TORSDOF 2
ENDMDL
MODEL 2
REMARK VINA RESULT:    -9.115      3.490      6.504
REMARK INTER + INTRA:         -10.011
REMARK INTER:                  -9.964
REMARK INTRA:                  -0.047
REMARK UNBOUND:                 0.170
REMARK SMILES COc1ccc2nc3cc(Cl)ccc3c(C=O)c2c1
REMARK SMILES IDX 3 1 19 2 18 3 15 4 14 5 13 6 12 7 10 8 11 9 9 10 8 11 7 12
REMARK SMILES IDX 6 13 5 14 4 15 2 16 1 17 16 18 17 19
REMARK H PARENT
ROOT
ATOM      1  C   UNL     1     -26.134   5.366   8.090  1.00  0.00    +0.119 A 
ATOM      2  C   UNL     1     -27.348   6.056   8.077  1.00  0.00    +0.057 A 
ATOM      3  C   UNL     1     -27.463   7.372   7.548  1.00  0.00    +0.015 A 
ATOM      4  C   UNL     1     -28.650   8.149   7.493  1.00  0.00    +0.033 A 
ATOM      5  C   UNL     1     -28.668   9.447   6.913  1.00  0.00    +0.011 A 
ATOM      6  C   UNL     1     -29.793  10.313   6.825  1.00  0.00    +0.012 A 
ATOM      7  C   UNL     1     -29.698  11.574   6.237  1.00  0.00    +0.021 A 
ATOM      8  C   UNL     1     -28.478  11.994   5.735  1.00  0.00    +0.043 A 
ATOM      9 Cl   UNL     1     -28.338  13.546   5.008  1.00  0.00    -0.084 Cl
ATOM     10  C   UNL     1     -27.364  11.164   5.823  1.00  0.00    +0.049 A 
ATOM     11  C   UNL     1     -27.440   9.907   6.404  1.00  0.00    +0.073 A 
ATOM     12  N   UNL     1     -26.313   9.188   6.460  1.00  0.00    -0.248 NA
ATOM     13  C   UNL     1     -26.315   7.966   7.007  1.00  0.00    +0.072 A 
ATOM     14  C   UNL     1     -25.115   7.268   7.028  1.00  0.00    +0.033 A 
ATOM     15  C   UNL     1     -25.010   5.981   7.565  1.00  0.00    +0.048 A 
ENDROOT
BRANCH   1  16
ATOM     16  O   UNL     1     -26.191   4.115   8.638  1.00  0.00    -0.497 OA
ATOM     17  C   UNL     1     -25.463   3.906   9.843  1.00  0.00    +0.278 C 
ENDBRANCH   1  16
BRANCH   4  18
ATOM     18  C   UNL     1     -29.886   7.579   8.087  1.00  0.00    +0.261 C 
ATOM     19  O   UNL     1     -30.876   7.290   7.428  1.00  0.00    -0.298 OA
ENDBRANCH   4  18
TORSDOF 2
ENDMDL
MODEL 3
REMARK VINA RESULT:    -8.664      3.285      4.502
REMARK INTER + INTRA:          -9.507
REMARK INTER:                  -9.363
REMARK INTRA:                  -0.144
REMARK UNBOUND:                 0.170
REMARK SMILES COc1ccc2nc3cc(Cl)ccc3c(C=O)c2c1
REMARK SMILES IDX 3 1 19 2 18 3 15 4 14 5 13 6 12 7 10 8 11 9 9 10 8 11 7 12
REMARK SMILES IDX 6 13 5 14 4 15 2 16 1 17 16 18 17 19
REMARK H PARENT
ROOT
ATOM      1  C   UNL     1     -28.088  11.510   6.054  1.00  0.00    +0.119 A 
ATOM      2  C   UNL     1     -28.139  10.208   6.557  1.00  0.00    +0.057 A 
ATOM      3  C   UNL     1     -29.373   9.552   6.832  1.00  0.00    +0.015 A 
ATOM      4  C   UNL     1     -29.523   8.236   7.343  1.00  0.00    +0.033 A 
ATOM      5  C   UNL     1     -30.804   7.657   7.553  1.00  0.00    +0.011 A 
ATOM      6  C   UNL     1     -31.065   6.361   8.077  1.00  0.00    +0.012 A 
ATOM      7  C   UNL     1     -32.367   5.892   8.247  1.00  0.00    +0.021 A 
ATOM      8  C   UNL     1     -33.429   6.712   7.907  1.00  0.00    +0.043 A 
ATOM      9 Cl   UNL     1     -35.044   6.155   8.111  1.00  0.00    -0.084 Cl
ATOM     10  C   UNL     1     -33.193   7.988   7.404  1.00  0.00    +0.049 A 
ATOM     11  C   UNL     1     -31.904   8.470   7.227  1.00  0.00    +0.073 A 
ATOM     12  N   UNL     1     -31.775   9.716   6.754  1.00  0.00    -0.248 NA
ATOM     13  C   UNL     1     -30.561  10.244   6.559  1.00  0.00    +0.072 A 
ATOM     14  C   UNL     1     -30.493  11.538   6.061  1.00  0.00    +0.033 A 
ATOM     15  C   UNL     1     -29.276  12.179   5.810  1.00  0.00    +0.048 A 
ENDROOT
BRANCH   1  16
ATOM     16  O   UNL     1     -26.828  11.997   5.851  1.00  0.00    -0.497 OA
ATOM     17  C   UNL     1     -25.770  11.046   5.807  1.00  0.00    +0.278 C 
ENDBRANCH   1  16
BRANCH   4  18
ATOM     18  C   UNL     1     -28.294   7.474   7.683  1.00  0.00    +0.261 C 
ATOM     19  O   UNL     1     -27.871   7.356   8.825  1.00  0.00    -0.298 OA
ENDBRANCH   4  18
TORSDOF 2
ENDMDL
MODEL 4
REMARK VINA RESULT:    -8.381      3.084      6.100
REMARK INTER + INTRA:          -9.191
REMARK INTER:                  -9.249
REMARK INTRA:                   0.058
REMARK UNBOUND:                 0.170
REMARK SMILES COc1ccc2nc3cc(Cl)ccc3c(C=O)c2c1
REMARK SMILES IDX 3 1 19 2 18 3 15 4 14 5 13 6 12 7 10 8 11 9 9 10 8 11 7 12
REMARK SMILES IDX 6 13 5 14 4 15 2 16 1 17 16 18 17 19
REMARK H PARENT
ROOT
ATOM      1  C   UNL     1     -25.812   4.116   8.956  1.00  0.00    +0.119 A 
ATOM      2  C   UNL     1     -25.418   5.213   8.186  1.00  0.00    +0.057 A 
ATOM      3  C   UNL     1     -26.313   6.273   7.869  1.00  0.00    +0.015 A 
ATOM      4  C   UNL     1     -26.004   7.423   7.095  1.00  0.00    +0.033 A 
ATOM      5  C   UNL     1     -26.963   8.447   6.861  1.00  0.00    +0.011 A 
ATOM      6  C   UNL     1     -26.763   9.624   6.089  1.00  0.00    +0.012 A 
ATOM      7  C   UNL     1     -27.779  10.564   5.919  1.00  0.00    +0.021 A 
ATOM      8  C   UNL     1     -29.011  10.342   6.509  1.00  0.00    +0.043 A 
ATOM      9 Cl   UNL     1     -30.278  11.488   6.310  1.00  0.00    -0.084 Cl
ATOM     10  C   UNL     1     -29.227   9.189   7.259  1.00  0.00    +0.049 A 
ATOM     11  C   UNL     1     -28.229   8.243   7.439  1.00  0.00    +0.073 A 
ATOM     12  N   UNL     1     -28.534   7.158   8.161  1.00  0.00    -0.248 NA
ATOM     13  C   UNL     1     -27.618   6.206   8.375  1.00  0.00    +0.072 A 
ATOM     14  C   UNL     1     -27.995   5.109   9.137  1.00  0.00    +0.033 A 
ATOM     15  C   UNL     1     -27.112   4.064   9.430  1.00  0.00    +0.048 A 
ENDROOT
BRANCH   1  16
ATOM     16  O   UNL     1     -24.837   3.182   9.165  1.00  0.00    -0.497 OA
ATOM     17  C   UNL     1     -24.293   3.103  10.478  1.00  0.00    +0.278 C 
ENDBRANCH   1  16
BRANCH   4  18
ATOM     18  C   UNL     1     -24.644   7.524   6.506  1.00  0.00    +0.261 C 
ATOM     19  O   UNL     1     -23.908   8.486   6.677  1.00  0.00    -0.298 OA
ENDBRANCH   4  18
TORSDOF 2
ENDMDL
MODEL 5
REMARK VINA RESULT:    -8.244      4.206      6.019
REMARK INTER + INTRA:          -9.038
REMARK INTER:                  -9.083
REMARK INTRA:                   0.045
REMARK UNBOUND:                 0.170
REMARK SMILES COc1ccc2nc3cc(Cl)ccc3c(C=O)c2c1
REMARK SMILES IDX 3 1 19 2 18 3 15 4 14 5 13 6 12 7 10 8 11 9 9 10 8 11 7 12
REMARK SMILES IDX 6 13 5 14 4 15 2 16 1 17 16 18 17 19
REMARK H PARENT
ROOT
ATOM      1  C   UNL     1     -32.075   6.327   8.201  1.00  0.00    +0.119 A 
ATOM      2  C   UNL     1     -30.728   6.660   8.034  1.00  0.00    +0.057 A 
ATOM      3  C   UNL     1     -30.321   7.915   7.502  1.00  0.00    +0.015 A 
ATOM      4  C   UNL     1     -28.982   8.340   7.296  1.00  0.00    +0.033 A 
ATOM      5  C   UNL     1     -28.677   9.632   6.787  1.00  0.00    +0.011 A 
ATOM      6  C   UNL     1     -27.377  10.147   6.526  1.00  0.00    +0.012 A 
ATOM      7  C   UNL     1     -27.192  11.433   6.019  1.00  0.00    +0.021 A 
ATOM      8  C   UNL     1     -28.298  12.222   5.758  1.00  0.00    +0.043 A 
ATOM      9 Cl   UNL     1     -28.092  13.810   5.131  1.00  0.00    -0.084 Cl
ATOM     10  C   UNL     1     -29.578  11.730   5.997  1.00  0.00    +0.049 A 
ATOM     11  C   UNL     1     -29.782  10.454   6.501  1.00  0.00    +0.073 A 
ATOM     12  N   UNL     1     -31.048  10.060   6.681  1.00  0.00    -0.248 NA
ATOM     13  C   UNL     1     -31.317   8.842   7.164  1.00  0.00    +0.072 A 
ATOM     14  C   UNL     1     -32.651   8.496   7.335  1.00  0.00    +0.033 A 
ATOM     15  C   UNL     1     -33.041   7.253   7.844  1.00  0.00    +0.048 A 
ENDROOT
BRANCH   1  16
ATOM     16  O   UNL     1     -32.298   5.082   8.718  1.00  0.00    -0.497 OA
ATOM     17  C   UNL     1     -33.656   4.690   8.887  1.00  0.00    +0.278 C 
ENDBRANCH   1  16
BRANCH   4  18
ATOM     18  C   UNL     1     -27.890   7.381   7.603  1.00  0.00    +0.261 C 
ATOM     19  O   UNL     1     -27.679   6.942   8.726  1.00  0.00    -0.298 OA
ENDBRANCH   4  18
TORSDOF 2
ENDMDL
MODEL 6
REMARK VINA RESULT:    -7.983      7.599      9.375
REMARK INTER + INTRA:          -8.746
REMARK INTER:                  -8.586
REMARK INTRA:                  -0.160
REMARK UNBOUND:                 0.170
REMARK SMILES COc1ccc2nc3cc(Cl)ccc3c(C=O)c2c1
REMARK SMILES IDX 3 1 19 2 18 3 15 4 14 5 13 6 12 7 10 8 11 9 9 10 8 11 7 12
REMARK SMILES IDX 6 13 5 14 4 15 2 16 1 17 16 18 17 19
REMARK H PARENT
ROOT
ATOM      1  C   UNL     1     -24.076   2.622  10.883  1.00  0.00    +0.119 A 
ATOM      2  C   UNL     1     -24.805   1.461  10.615  1.00  0.00    +0.057 A 
ATOM      3  C   UNL     1     -26.226   1.464  10.533  1.00  0.00    +0.015 A 
ATOM      4  C   UNL     1     -27.049   0.338  10.266  1.00  0.00    +0.033 A 
ATOM      5  C   UNL     1     -28.463   0.451  10.172  1.00  0.00    +0.011 A 
ATOM      6  C   UNL     1     -29.377  -0.611   9.930  1.00  0.00    +0.012 A 
ATOM      7  C   UNL     1     -30.752  -0.389   9.861  1.00  0.00    +0.021 A 
ATOM      8  C   UNL     1     -31.237   0.895  10.041  1.00  0.00    +0.043 A 
ATOM      9 Cl   UNL     1     -32.930   1.192   9.963  1.00  0.00    -0.084 Cl
ATOM     10  C   UNL     1     -30.358   1.945  10.291  1.00  0.00    +0.049 A 
ATOM     11  C   UNL     1     -28.988   1.742  10.362  1.00  0.00    +0.073 A 
ATOM     12  N   UNL     1     -28.223   2.808  10.624  1.00  0.00    -0.248 NA
ATOM     13  C   UNL     1     -26.893   2.685  10.706  1.00  0.00    +0.072 A 
ATOM     14  C   UNL     1     -26.154   3.829  10.973  1.00  0.00    +0.033 A 
ATOM     15  C   UNL     1     -24.759   3.812  11.068  1.00  0.00    +0.048 A 
ENDROOT
BRANCH   1  16
ATOM     16  O   UNL     1     -22.722   2.449  10.935  1.00  0.00    -0.497 OA
ATOM     17  C   UNL     1     -22.185   1.349  10.209  1.00  0.00    +0.278 C 
ENDBRANCH   1  16
BRANCH   4  18
ATOM     18  C   UNL     1     -26.394  -0.986  10.111  1.00  0.00    +0.261 C 
ATOM     19  O   UNL     1     -26.001  -1.419   9.036  1.00  0.00    -0.298 OA
ENDBRANCH   4  18
TORSDOF 2
ENDMDL
MODEL 7
REMARK VINA RESULT:    -7.745      7.987     10.623
REMARK INTER + INTRA:          -8.481
REMARK INTER:                  -8.327
REMARK INTRA:                  -0.154
REMARK UNBOUND:                 0.170
REMARK SMILES COc1ccc2nc3cc(Cl)ccc3c(C=O)c2c1
REMARK SMILES IDX 3 1 19 2 18 3 15 4 14 5 13 6 12 7 10 8 11 9 9 10 8 11 7 12
REMARK SMILES IDX 6 13 5 14 4 15 2 16 1 17 16 18 17 19
REMARK H PARENT
ROOT
ATOM      1  C   UNL     1     -31.292  -1.377  11.874  1.00  0.00    +0.119 A 
ATOM      2  C   UNL     1     -30.528  -0.524  12.674  1.00  0.00    +0.057 A 
ATOM      3  C   UNL     1     -29.565   0.367  12.123  1.00  0.00    +0.015 A 
ATOM      4  C   UNL     1     -28.745   1.266  12.855  1.00  0.00    +0.033 A 
ATOM      5  C   UNL     1     -27.833   2.143  12.207  1.00  0.00    +0.011 A 
ATOM      6  C   UNL     1     -26.956   3.064  12.844  1.00  0.00    +0.012 A 
ATOM      7  C   UNL     1     -26.094   3.877  12.108  1.00  0.00    +0.021 A 
ATOM      8  C   UNL     1     -26.087   3.779  10.728  1.00  0.00    +0.043 A 
ATOM      9 Cl   UNL     1     -25.031   4.771   9.801  1.00  0.00    -0.084 Cl
ATOM     10  C   UNL     1     -26.931   2.875  10.088  1.00  0.00    +0.049 A 
ATOM     11  C   UNL     1     -27.795   2.059  10.804  1.00  0.00    +0.073 A 
ATOM     12  N   UNL     1     -28.556   1.208  10.104  1.00  0.00    -0.248 NA
ATOM     13  C   UNL     1     -29.412   0.392  10.731  1.00  0.00    +0.072 A 
ATOM     14  C   UNL     1     -30.177  -0.462   9.949  1.00  0.00    +0.033 A 
ATOM     15  C   UNL     1     -31.110  -1.346  10.501  1.00  0.00    +0.048 A 
ENDROOT
BRANCH   1  16
ATOM     16  O   UNL     1     -32.167  -2.174  12.556  1.00  0.00    -0.497 OA
ATOM     17  C   UNL     1     -32.537  -3.401  11.937  1.00  0.00    +0.278 C 
ENDBRANCH   1  16
BRANCH   4  18
ATOM     18  C   UNL     1     -28.843   1.253  14.337  1.00  0.00    +0.261 C 
ATOM     19  O   UNL     1     -28.158   0.531  15.049  1.00  0.00    -0.298 OA
ENDBRANCH   4  18
TORSDOF 2
ENDMDL
MODEL 8
REMARK VINA RESULT:    -7.654      6.349      8.918
REMARK INTER + INTRA:          -8.379
REMARK INTER:                  -8.224
REMARK INTRA:                  -0.155
REMARK UNBOUND:                 0.170
REMARK SMILES COc1ccc2nc3cc(Cl)ccc3c(C=O)c2c1
REMARK SMILES IDX 3 1 19 2 18 3 15 4 14 5 13 6 12 7 10 8 11 9 9 10 8 11 7 12
REMARK SMILES IDX 6 13 5 14 4 15 2 16 1 17 16 18 17 19
REMARK H PARENT
ROOT
ATOM      1  C   UNL     1     -26.624   4.010   9.581  1.00  0.00    +0.119 A 
ATOM      2  C   UNL     1     -27.802   3.277   9.740  1.00  0.00    +0.057 A 
ATOM      3  C   UNL     1     -28.076   2.536  10.924  1.00  0.00    +0.015 A 
ATOM      4  C   UNL     1     -29.241   1.763  11.175  1.00  0.00    +0.033 A 
ATOM      5  C   UNL     1     -29.436   1.083  12.408  1.00  0.00    +0.011 A 
ATOM      6  C   UNL     1     -30.551   0.271  12.752  1.00  0.00    +0.012 A 
ATOM      7  C   UNL     1     -30.639  -0.357  13.994  1.00  0.00    +0.021 A 
ATOM      8  C   UNL     1     -29.613  -0.192  14.909  1.00  0.00    +0.043 A 
ATOM      9 Cl   UNL     1     -29.701  -0.959  16.446  1.00  0.00    -0.084 Cl
ATOM     10  C   UNL     1     -28.509   0.591  14.585  1.00  0.00    +0.049 A 
ATOM     11  C   UNL     1     -28.405   1.223  13.354  1.00  0.00    +0.073 A 
ATOM     12  N   UNL     1     -27.298   1.940  13.125  1.00  0.00    -0.248 NA
ATOM     13  C   UNL     1     -27.132   2.577  11.959  1.00  0.00    +0.072 A 
ATOM     14  C   UNL     1     -25.966   3.309  11.785  1.00  0.00    +0.033 A 
ATOM     15  C   UNL     1     -25.699   4.021  10.611  1.00  0.00    +0.048 A 
ENDROOT
BRANCH   1  16
ATOM     16  O   UNL     1     -26.511   4.660   8.385  1.00  0.00    -0.497 OA
ATOM     17  C   UNL     1     -25.545   5.703   8.308  1.00  0.00    +0.278 C 
ENDBRANCH   1  16
BRANCH   4  18
ATOM     18  C   UNL     1     -30.255   1.658  10.095  1.00  0.00    +0.261 C 
ATOM     19  O   UNL     1     -31.230   2.393  10.016  1.00  0.00    -0.298 OA
ENDBRANCH   4  18
TORSDOF 2
ENDMDL
MODEL 9
REMARK VINA RESULT:    -7.559      4.665      6.159
REMARK INTER + INTRA:          -8.273
REMARK INTER:                  -8.245
REMARK INTRA:                  -0.028
REMARK UNBOUND:                 0.170
REMARK SMILES COc1ccc2nc3cc(Cl)ccc3c(C=O)c2c1
REMARK SMILES IDX 3 1 19 2 18 3 15 4 14 5 13 6 12 7 10 8 11 9 9 10 8 11 7 12
REMARK SMILES IDX 6 13 5 14 4 15 2 16 1 17 16 18 17 19
REMARK H PARENT
ROOT
ATOM      1  C   UNL     1     -31.144   9.135   6.814  1.00  0.00    +0.119 A 
ATOM      2  C   UNL     1     -32.246   8.296   6.997  1.00  0.00    +0.057 A 
ATOM      3  C   UNL     1     -32.134   7.033   7.643  1.00  0.00    +0.015 A 
ATOM      4  C   UNL     1     -33.194   6.116   7.872  1.00  0.00    +0.033 A 
ATOM      5  C   UNL     1     -32.985   4.889   8.559  1.00  0.00    +0.011 A 
ATOM      6  C   UNL     1     -33.968   3.896   8.823  1.00  0.00    +0.012 A 
ATOM      7  C   UNL     1     -33.652   2.720   9.504  1.00  0.00    +0.021 A 
ATOM      8  C   UNL     1     -32.350   2.513   9.925  1.00  0.00    +0.043 A 
ATOM      9 Cl   UNL     1     -31.938   1.070  10.764  1.00  0.00    -0.084 Cl
ATOM     10  C   UNL     1     -31.372   3.470   9.665  1.00  0.00    +0.049 A 
ATOM     11  C   UNL     1     -31.669   4.644   8.990  1.00  0.00    +0.073 A 
ATOM     12  N   UNL     1     -30.660   5.496   8.770  1.00  0.00    -0.248 NA
ATOM     13  C   UNL     1     -30.875   6.649   8.125  1.00  0.00    +0.072 A 
ATOM     14  C   UNL     1     -29.790   7.493   7.934  1.00  0.00    +0.033 A 
ATOM     15  C   UNL     1     -29.907   8.726   7.283  1.00  0.00    +0.048 A 
ENDROOT
BRANCH   1  16
ATOM     16  O   UNL     1     -31.417  10.309   6.170  1.00  0.00    -0.497 OA
ATOM     17  C   UNL     1     -30.810  11.486   6.693  1.00  0.00    +0.278 C 
ENDBRANCH   1  16
BRANCH   4  18
ATOM     18  C   UNL     1     -34.540   6.460   7.349  1.00  0.00    +0.261 C 
ATOM     19  O   UNL     1     -35.516   6.635   8.068  1.00  0.00    -0.298 OA
ENDBRANCH   4  18
TORSDOF 2
ENDMDL
