MODEL 1
REMARK VINA RESULT:    -5.179      0.000      0.000
REMARK INTER + INTRA:          -5.331
REMARK INTER:                  -5.331
REMARK INTRA:                   0.000
REMARK UNBOUND:                 0.000
REMARK SMILES CC1(O)CCCCC1
REMARK SMILES IDX 1 1 2 2 4 3 5 4 6 5 7 6 8 7 3 8
REMARK H PARENT 3 9
ROOT
ATOM      1  C   UNL     1     -33.687   5.314   8.584  1.00  0.00    +0.042 C 
ATOM      2  C   UNL     1     -33.592   6.336   7.450  1.00  0.00    +0.062 C 
ATOM      3  C   UNL     1     -32.189   6.962   7.399  1.00  0.00    +0.035 C 
ATOM      4  C   UNL     1     -32.026   7.921   6.219  1.00  0.00    +0.003 C 
ATOM      5  C   UNL     1     -32.379   7.249   4.896  1.00  0.00    +0.000 C 
ATOM      6  C   UNL     1     -33.778   6.644   4.929  1.00  0.00    +0.003 C 
ATOM      7  C   UNL     1     -33.949   5.682   6.106  1.00  0.00    +0.035 C 
ENDROOT
BRANCH   2   8
ATOM      8  O   UNL     1     -34.552   7.364   7.709  1.00  0.00    -0.390 OA
ATOM      9  H   UNL     1     -35.355   6.944   8.061  1.00  0.00    +0.211 HD
ENDBRANCH   2   8
TORSDOF 1
ENDMDL
MODEL 2
REMARK VINA RESULT:    -5.108      6.581      7.903
REMARK INTER + INTRA:          -5.257
REMARK INTER:                  -5.257
REMARK INTRA:                   0.000
REMARK UNBOUND:                 0.000
REMARK SMILES CC1(O)CCCCC1
REMARK SMILES IDX 1 1 2 2 4 3 5 4 6 5 7 6 8 7 3 8
REMARK H PARENT 3 9
ROOT
ATOM      1  C   UNL     1     -25.126   9.211   6.545  1.00  0.00    +0.042 C 
ATOM      2  C   UNL     1     -26.296   9.925   5.867  1.00  0.00    +0.062 C 
ATOM      3  C   UNL     1     -27.557   9.854   6.743  1.00  0.00    +0.035 C 
ATOM      4  C   UNL     1     -28.725  10.637   6.142  1.00  0.00    +0.003 C 
ATOM      5  C   UNL     1     -28.338  12.083   5.846  1.00  0.00    +0.000 C 
ATOM      6  C   UNL     1     -27.100  12.164   4.959  1.00  0.00    +0.003 C 
ATOM      7  C   UNL     1     -25.928  11.383   5.556  1.00  0.00    +0.035 C 
ENDROOT
BRANCH   2   8
ATOM      8  O   UNL     1     -26.552   9.260   4.627  1.00  0.00    -0.390 OA
ATOM      9  H   UNL     1     -26.969   8.404   4.825  1.00  0.00    +0.211 HD
ENDBRANCH   2   8
TORSDOF 1
ENDMDL
MODEL 3
REMARK VINA RESULT:    -4.784      4.582      5.954
REMARK INTER + INTRA:          -4.923
REMARK INTER:                  -4.923
REMARK INTRA:                   0.000
REMARK UNBOUND:                 0.000
REMARK SMILES CC1(O)CCCCC1
REMARK SMILES IDX 1 1 2 2 4 3 5 4 6 5 7 6 8 7 3 8
REMARK H PARENT 3 9
ROOT
ATOM      1  C   UNL     1     -27.157   9.496   5.479  1.00  0.00    +0.042 C 
ATOM      2  C   UNL     1     -28.262   9.829   6.482  1.00  0.00    +0.062 C 
ATOM      3  C   UNL     1     -28.816  11.241   6.232  1.00  0.00    +0.035 C 
ATOM      4  C   UNL     1     -29.988  11.576   7.156  1.00  0.00    +0.003 C 
ATOM      5  C   UNL     1     -31.091  10.526   7.066  1.00  0.00    +0.000 C 
ATOM      6  C   UNL     1     -30.556   9.124   7.334  1.00  0.00    +0.003 C 
ATOM      7  C   UNL     1     -29.384   8.782   6.413  1.00  0.00    +0.035 C 
ENDROOT
BRANCH   2   8
ATOM      8  O   UNL     1     -27.691   9.777   7.792  1.00  0.00    -0.390 OA
ATOM      9  H   UNL     1     -26.916   9.192   7.759  1.00  0.00    +0.211 HD
ENDBRANCH   2   8
TORSDOF 1
ENDMDL
MODEL 4
REMARK VINA RESULT:    -4.711      6.303      7.194
REMARK INTER + INTRA:          -4.849
REMARK INTER:                  -4.849
REMARK INTRA:                   0.000
REMARK UNBOUND:                 0.000
REMARK SMILES CC1(O)CCCCC1
REMARK SMILES IDX 1 1 2 2 4 3 5 4 6 5 7 6 8 7 3 8
REMARK H PARENT 3 9
ROOT
ATOM      1  C   UNL     1     -26.148   8.101   5.801  1.00  0.00    +0.042 C 
ATOM      2  C   UNL     1     -26.766   9.416   6.282  1.00  0.00    +0.062 C 
ATOM      3  C   UNL     1     -26.807  10.446   5.142  1.00  0.00    +0.035 C 
ATOM      4  C   UNL     1     -27.504  11.742   5.558  1.00  0.00    +0.003 C 
ATOM      5  C   UNL     1     -28.900  11.477   6.113  1.00  0.00    +0.000 C 
ATOM      6  C   UNL     1     -28.867  10.472   7.259  1.00  0.00    +0.003 C 
ATOM      7  C   UNL     1     -28.172   9.172   6.850  1.00  0.00    +0.035 C 
ENDROOT
BRANCH   2   8
ATOM      8  O   UNL     1     -25.945   9.922   7.338  1.00  0.00    -0.390 OA
ATOM      9  H   UNL     1     -26.530  10.235   8.049  1.00  0.00    +0.211 HD
ENDBRANCH   2   8
TORSDOF 1
ENDMDL
MODEL 5
REMARK VINA RESULT:    -4.537      3.591      5.642
REMARK INTER + INTRA:          -4.669
REMARK INTER:                  -4.669
REMARK INTRA:                   0.000
REMARK UNBOUND:                 0.000
REMARK SMILES CC1(O)CCCCC1
REMARK SMILES IDX 1 1 2 2 4 3 5 4 6 5 7 6 8 7 3 8
REMARK H PARENT 3 9
ROOT
ATOM      1  C   UNL     1     -34.845   4.398   8.383  1.00  0.00    +0.042 C 
ATOM      2  C   UNL     1     -35.848   5.245   9.169  1.00  0.00    +0.062 C 
ATOM      3  C   UNL     1     -37.287   4.780   8.893  1.00  0.00    +0.035 C 
ATOM      4  C   UNL     1     -38.313   5.542   9.733  1.00  0.00    +0.003 C 
ATOM      5  C   UNL     1     -37.985   5.470  11.221  1.00  0.00    +0.000 C 
ATOM      6  C   UNL     1     -36.566   5.950  11.508  1.00  0.00    +0.003 C 
ATOM      7  C   UNL     1     -35.534   5.191  10.672  1.00  0.00    +0.035 C 
ENDROOT
BRANCH   2   8
ATOM      8  O   UNL     1     -35.704   6.601   8.737  1.00  0.00    -0.390 OA
ATOM      9  H   UNL     1     -34.798   6.888   8.943  1.00  0.00    +0.211 HD
ENDBRANCH   2   8
TORSDOF 1
ENDMDL
MODEL 6
REMARK VINA RESULT:    -4.464     10.709     11.482
REMARK INTER + INTRA:          -4.595
REMARK INTER:                  -4.595
REMARK INTRA:                   0.000
REMARK UNBOUND:                 0.000
REMARK SMILES CC1(O)CCCCC1
REMARK SMILES IDX 1 1 2 2 4 3 5 4 6 5 7 6 8 7 3 8
REMARK H PARENT 3 9
ROOT
ATOM      1  C   UNL     1     -25.999  -0.770  10.450  1.00  0.00    +0.042 C 
ATOM      2  C   UNL     1     -24.998   0.354  10.177  1.00  0.00    +0.062 C 
ATOM      3  C   UNL     1     -25.245   1.543  11.119  1.00  0.00    +0.035 C 
ATOM      4  C   UNL     1     -24.205   2.650  10.940  1.00  0.00    +0.003 C 
ATOM      5  C   UNL     1     -22.784   2.114  11.088  1.00  0.00    +0.000 C 
ATOM      6  C   UNL     1     -22.522   0.947  10.142  1.00  0.00    +0.003 C 
ATOM      7  C   UNL     1     -23.558  -0.164  10.316  1.00  0.00    +0.035 C 
ENDROOT
BRANCH   2   8
ATOM      8  O   UNL     1     -25.183   0.783   8.825  1.00  0.00    -0.390 OA
ATOM      9  H   UNL     1     -26.082   0.533   8.551  1.00  0.00    +0.211 HD
ENDBRANCH   2   8
TORSDOF 1
ENDMDL
MODEL 7
REMARK VINA RESULT:    -4.334      9.276     10.120
REMARK INTER + INTRA:          -4.461
REMARK INTER:                  -4.461
REMARK INTRA:                   0.000
REMARK UNBOUND:                 0.000
REMARK SMILES CC1(O)CCCCC1
REMARK SMILES IDX 1 1 2 2 4 3 5 4 6 5 7 6 8 7 3 8
REMARK H PARENT 3 9
ROOT
ATOM      1  C   UNL     1     -26.177  -0.188  10.612  1.00  0.00    +0.042 C 
ATOM      2  C   UNL     1     -25.590   1.150  10.159  1.00  0.00    +0.062 C 
ATOM      3  C   UNL     1     -26.699   2.201   9.992  1.00  0.00    +0.035 C 
ATOM      4  C   UNL     1     -26.141   3.579   9.630  1.00  0.00    +0.003 C 
ATOM      5  C   UNL     1     -25.090   4.040  10.634  1.00  0.00    +0.000 C 
ATOM      6  C   UNL     1     -23.973   3.013  10.791  1.00  0.00    +0.003 C 
ATOM      7  C   UNL     1     -24.524   1.632  11.154  1.00  0.00    +0.035 C 
ENDROOT
BRANCH   2   8
ATOM      8  O   UNL     1     -24.952   0.940   8.896  1.00  0.00    -0.390 OA
ATOM      9  H   UNL     1     -25.012  -0.007   8.683  1.00  0.00    +0.211 HD
ENDBRANCH   2   8
TORSDOF 1
ENDMDL
MODEL 8
REMARK VINA RESULT:    -4.262      8.965      9.508
REMARK INTER + INTRA:          -4.387
REMARK INTER:                  -4.387
REMARK INTRA:                   0.000
REMARK UNBOUND:                 0.000
REMARK SMILES CC1(O)CCCCC1
REMARK SMILES IDX 1 1 2 2 4 3 5 4 6 5 7 6 8 7 3 8
REMARK H PARENT 3 9
ROOT
ATOM      1  C   UNL     1     -28.002   2.084  13.049  1.00  0.00    +0.042 C 
ATOM      2  C   UNL     1     -26.851   2.228  12.052  1.00  0.00    +0.062 C 
ATOM      3  C   UNL     1     -27.348   2.020  10.613  1.00  0.00    +0.035 C 
ATOM      4  C   UNL     1     -26.243   2.248   9.580  1.00  0.00    +0.003 C 
ATOM      5  C   UNL     1     -25.593   3.618   9.747  1.00  0.00    +0.000 C 
ATOM      6  C   UNL     1     -25.077   3.826  11.167  1.00  0.00    +0.003 C 
ATOM      7  C   UNL     1     -26.177   3.600  12.205  1.00  0.00    +0.035 C 
ENDROOT
BRANCH   2   8
ATOM      8  O   UNL     1     -25.880   1.223  12.361  1.00  0.00    -0.390 OA
ATOM      9  H   UNL     1     -25.278   1.144  11.601  1.00  0.00    +0.211 HD
ENDBRANCH   2   8
TORSDOF 1
ENDMDL
MODEL 9
REMARK VINA RESULT:    -3.973      4.843      5.994
REMARK INTER + INTRA:          -4.089
REMARK INTER:                  -4.089
REMARK INTRA:                   0.000
REMARK UNBOUND:                 0.000
REMARK SMILES CC1(O)CCCCC1
REMARK SMILES IDX 1 1 2 2 4 3 5 4 6 5 7 6 8 7 3 8
REMARK H PARENT 3 9
ROOT
ATOM      1  C   UNL     1     -36.136   2.229  10.270  1.00  0.00    +0.042 C 
ATOM      2  C   UNL     1     -36.454   3.722  10.368  1.00  0.00    +0.062 C 
ATOM      3  C   UNL     1     -36.457   4.369   8.974  1.00  0.00    +0.035 C 
ATOM      4  C   UNL     1     -36.863   5.843   9.021  1.00  0.00    +0.003 C 
ATOM      5  C   UNL     1     -38.205   6.033   9.722  1.00  0.00    +0.000 C 
ATOM      6  C   UNL     1     -38.204   5.413  11.115  1.00  0.00    +0.003 C 
ATOM      7  C   UNL     1     -37.800   3.938  11.075  1.00  0.00    +0.035 C 
ENDROOT
BRANCH   2   8
ATOM      8  O   UNL     1     -35.434   4.333  11.164  1.00  0.00    -0.390 OA
ATOM      9  H   UNL     1     -35.859   4.730  11.943  1.00  0.00    +0.211 HD
ENDBRANCH   2   8
TORSDOF 1
ENDMDL
