REMARK SMILES CCN(CC)c1ncnc2c1cnn2-c1ccccc1
REMARK SMILES IDX 3 1 2 2 1 3 4 4 5 5 6 6 11 7 7 8 12 9 10 10 8 11 13 12 14 13
REMARK SMILES IDX 9 14 15 15 16 16 20 17 17 18 19 19 18 20
REMARK H PARENT
ROOT
ATOM      1  N   UNL     1      -2.819   0.163  -0.066  1.00  0.00    -0.356 N 
ENDROOT
BRANCH   1   2
ATOM      2  C   UNL     1      -3.898   1.151   0.055  1.00  0.00    +0.114 C 
ATOM      3  C   UNL     1      -4.197   1.815  -1.282  1.00  0.00    +0.027 C 
ENDBRANCH   1   2
BRANCH   1   4
ATOM      4  C   UNL     1      -3.199  -1.190  -0.447  1.00  0.00    +0.114 C 
ATOM      5  C   UNL     1      -3.396  -2.059   0.787  1.00  0.00    +0.027 C 
ENDBRANCH   1   4
BRANCH   1   6
ATOM      6  C   UNL     1      -1.508   0.614   0.014  1.00  0.00    +0.143 A 
ATOM      7  C   UNL     1      -0.333  -0.175  -0.021  1.00  0.00    +0.082 A 
ATOM      8  N   UNL     1      -1.315   1.957   0.154  1.00  0.00    -0.219 NA
ATOM      9  C   UNL     1       0.016  -1.536  -0.109  1.00  0.00    +0.150 A 
ATOM     10  C   UNL     1       0.899   0.469   0.065  1.00  0.00    +0.168 A 
ATOM     11  C   UNL     1      -0.076   2.465   0.228  1.00  0.00    +0.226 A 
ATOM     12  N   UNL     1       1.328  -1.760  -0.102  1.00  0.00    -0.174 NA
ATOM     13  N   UNL     1       1.885  -0.517   0.003  1.00  0.00    -0.215 N 
ATOM     14  N   UNL     1       1.079   1.800   0.186  1.00  0.00    -0.216 NA
BRANCH  13  15
ATOM     15  C   UNL     1       3.310  -0.390   0.038  1.00  0.00    +0.067 A 
ATOM     16  C   UNL     1       4.102  -1.550  -0.033  1.00  0.00    +0.028 A 
ATOM     17  C   UNL     1       3.946   0.854   0.141  1.00  0.00    +0.028 A 
ATOM     18  C   UNL     1       5.496  -1.465  -0.002  1.00  0.00    +0.002 A 
ATOM     19  C   UNL     1       5.343   0.933   0.171  1.00  0.00    +0.002 A 
ATOM     20  C   UNL     1       6.116  -0.223   0.100  1.00  0.00    +0.000 A 
ENDBRANCH  13  15
ENDBRANCH   1   6
TORSDOF 4
