REMARK SMILES CCN(CC)CCN(CC(=O)O)CC(=O)O
REMARK SMILES IDX 7 1 6 2 3 3 2 4 1 5 4 6 5 7 8 8 9 9 10 10 11 11 12 12 13 14
REMARK SMILES IDX 14 15 15 16 16 17
REMARK H PARENT 12 13 16 18
ROOT
ATOM      1  C   UNL     1      -0.171   0.593   0.669  1.00  0.00    +0.101 C 
ENDROOT
BRANCH   1   2
ATOM      2  C   UNL     1       0.699  -0.305  -0.250  1.00  0.00    +0.100 C 
BRANCH   2   3
ATOM      3  N   UNL     1       2.067  -0.500   0.290  1.00  0.00    -0.303 NA
BRANCH   3   4
ATOM      4  C   UNL     1       2.916   0.664  -0.037  1.00  0.00    +0.081 C 
ATOM      5  C   UNL     1       4.124   0.767   0.889  1.00  0.00    +0.021 C 
ENDBRANCH   3   4
BRANCH   3   6
ATOM      6  C   UNL     1       2.663  -1.741  -0.244  1.00  0.00    +0.081 C 
ATOM      7  C   UNL     1       2.136  -2.980   0.476  1.00  0.00    +0.021 C 
ENDBRANCH   3   6
ENDBRANCH   2   3
ENDBRANCH   1   2
BRANCH   1   8
ATOM      8  N   UNL     1      -1.553   0.758   0.163  1.00  0.00    -0.281 NA
BRANCH   8   9
ATOM      9  C   UNL     1      -2.379  -0.439   0.488  1.00  0.00    +0.208 C 
BRANCH   9  10
ATOM     10  C   UNL     1      -3.482  -0.679  -0.540  1.00  0.00    +0.317 C 
ATOM     11  O   UNL     1      -3.641  -0.143  -1.625  1.00  0.00    -0.251 OA
BRANCH  10  12
ATOM     12  O   UNL     1      -4.338  -1.644  -0.136  1.00  0.00    -0.480 OA
ATOM     13  H   UNL     1      -5.000  -1.676  -0.858  1.00  0.00    +0.296 HD
ENDBRANCH  10  12
ENDBRANCH   9  10
ENDBRANCH   8   9
BRANCH   8  14
ATOM     14  C   UNL     1      -2.140   1.991   0.751  1.00  0.00    +0.208 C 
BRANCH  14  15
ATOM     15  C   UNL     1      -3.496   2.336   0.162  1.00  0.00    +0.317 C 
ATOM     16  O   UNL     1      -4.576   1.947   0.584  1.00  0.00    -0.251 OA
BRANCH  15  17
ATOM     17  O   UNL     1      -3.420   3.103  -0.943  1.00  0.00    -0.480 OA
ATOM     18  H   UNL     1      -4.330   3.096  -1.302  1.00  0.00    +0.296 HD
ENDBRANCH  15  17
ENDBRANCH  14  15
ENDBRANCH   8  14
ENDBRANCH   1   8
TORSDOF 11
