MODEL 1
REMARK VINA RESULT:    -8.753      0.000      0.000
REMARK INTER + INTRA:         -11.666
REMARK INTER:                 -11.311
REMARK INTRA:                  -0.355
REMARK UNBOUND:                -0.355
REMARK SMILES CC(=O)c1ccc(SSc2ccc(C(C)=O)cc2)cc1
REMARK SMILES IDX 8 1 7 2 4 3 5 4 20 5 6 6 19 7 2 8 3 9 1 10 9 11 10 12 11 13
REMARK SMILES IDX 18 14 12 15 17 16 13 17 14 18 16 19 15 20
REMARK H PARENT
ROOT
ATOM      1  S   UNL     1     -32.387   7.763   6.208  1.00  0.00    -0.053 SA
ENDROOT
BRANCH   1   2
ATOM      2  C   UNL     1     -32.830   6.347   7.196  1.00  0.00    +0.019 A 
ATOM      3  C   UNL     1     -33.525   4.120   8.767  1.00  0.00    +0.017 A 
ATOM      4  C   UNL     1     -34.279   4.445   7.633  1.00  0.00    +0.013 A 
ATOM      5  C   UNL     1     -32.420   4.912   9.106  1.00  0.00    +0.013 A 
ATOM      6  C   UNL     1     -33.929   5.553   6.851  1.00  0.00    +0.017 A 
ATOM      7  C   UNL     1     -32.072   6.016   8.323  1.00  0.00    +0.017 A 
BRANCH   3   8
ATOM      8  C   UNL     1     -33.859   2.955   9.639  1.00  0.00    +0.159 C 
ATOM      9  O   UNL     1     -33.898   1.824   9.160  1.00  0.00    -0.295 OA
ATOM     10  C   UNL     1     -34.133   3.194  11.101  1.00  0.00    +0.093 C 
ENDBRANCH   3   8
ENDBRANCH   1   2
BRANCH   1  11
ATOM     11  S   UNL     1     -32.108   9.201   7.654  1.00  0.00    -0.053 SA
BRANCH  11  12
ATOM     12  C   UNL     1     -30.742  10.127   6.983  1.00  0.00    +0.019 A 
ATOM     13  C   UNL     1     -29.469   9.558   6.891  1.00  0.00    +0.017 A 
ATOM     14  C   UNL     1     -30.941  11.437   6.535  1.00  0.00    +0.017 A 
ATOM     15  C   UNL     1     -28.404  10.297   6.366  1.00  0.00    +0.013 A 
ATOM     16  C   UNL     1     -29.876  12.179   6.011  1.00  0.00    +0.013 A 
ATOM     17  C   UNL     1     -28.600  11.612   5.923  1.00  0.00    +0.017 A 
BRANCH  17  18
ATOM     18  C   UNL     1     -27.430  12.360   5.373  1.00  0.00    +0.159 C 
ATOM     19  O   UNL     1     -27.585  13.496   4.931  1.00  0.00    -0.295 OA
ATOM     20  C   UNL     1     -26.076  11.699   5.371  1.00  0.00    +0.093 C 
ENDBRANCH  17  18
ENDBRANCH  11  12
ENDBRANCH   1  11
TORSDOF 5
ENDMDL
MODEL 2
REMARK VINA RESULT:    -8.720      0.258      9.121
REMARK INTER + INTRA:         -11.624
REMARK INTER:                 -11.281
REMARK INTRA:                  -0.343
REMARK UNBOUND:                -0.355
REMARK SMILES CC(=O)c1ccc(SSc2ccc(C(C)=O)cc2)cc1
REMARK SMILES IDX 8 1 7 2 4 3 5 4 20 5 6 6 19 7 2 8 3 9 1 10 9 11 10 12 11 13
REMARK SMILES IDX 18 14 12 15 17 16 13 17 14 18 16 19 15 20
REMARK H PARENT
ROOT
ATOM      1  S   UNL     1     -32.125   9.147   7.655  1.00  0.00    -0.053 SA
ENDROOT
BRANCH   1   2
ATOM      2  C   UNL     1     -30.739  10.044   6.985  1.00  0.00    +0.019 A 
ATOM      3  C   UNL     1     -28.556  11.474   5.936  1.00  0.00    +0.017 A 
ATOM      4  C   UNL     1     -28.381  10.169   6.410  1.00  0.00    +0.013 A 
ATOM      5  C   UNL     1     -29.830  12.057   5.985  1.00  0.00    +0.013 A 
ATOM      6  C   UNL     1     -29.470   9.458   6.930  1.00  0.00    +0.017 A 
ATOM      7  C   UNL     1     -30.916  11.344   6.504  1.00  0.00    +0.017 A 
BRANCH   3   8
ATOM      8  C   UNL     1     -27.429  12.279   5.379  1.00  0.00    +0.159 C 
ATOM      9  O   UNL     1     -27.640  13.409   4.946  1.00  0.00    -0.295 OA
ATOM     10  C   UNL     1     -26.044  11.686   5.370  1.00  0.00    +0.093 C 
ENDBRANCH   3   8
ENDBRANCH   1   2
BRANCH   1  11
ATOM     11  S   UNL     1     -32.449   7.738   6.189  1.00  0.00    -0.053 SA
BRANCH  11  12
ATOM     12  C   UNL     1     -32.923   6.317   7.153  1.00  0.00    +0.019 A 
ATOM     13  C   UNL     1     -32.191   5.943   8.283  1.00  0.00    +0.017 A 
ATOM     14  C   UNL     1     -34.044   5.566   6.783  1.00  0.00    +0.017 A 
ATOM     15  C   UNL     1     -32.571   4.823   9.029  1.00  0.00    +0.013 A 
ATOM     16  C   UNL     1     -34.425   4.443   7.527  1.00  0.00    +0.013 A 
ATOM     17  C   UNL     1     -33.690   4.065   8.656  1.00  0.00    +0.017 A 
BRANCH  17  18
ATOM     18  C   UNL     1     -34.052   2.876   9.484  1.00  0.00    +0.159 C 
ATOM     19  O   UNL     1     -33.605   1.769   9.192  1.00  0.00    -0.295 OA
ATOM     20  C   UNL     1     -34.967   3.061  10.666  1.00  0.00    +0.093 C 
ENDBRANCH  17  18
ENDBRANCH  11  12
ENDBRANCH   1  11
TORSDOF 5
ENDMDL
MODEL 3
REMARK VINA RESULT:    -8.635      1.360      8.707
REMARK INTER + INTRA:         -11.515
REMARK INTER:                 -11.018
REMARK INTRA:                  -0.497
REMARK UNBOUND:                -0.355
REMARK SMILES CC(=O)c1ccc(SSc2ccc(C(C)=O)cc2)cc1
REMARK SMILES IDX 8 1 7 2 4 3 5 4 20 5 6 6 19 7 2 8 3 9 1 10 9 11 10 12 11 13
REMARK SMILES IDX 18 14 12 15 17 16 13 17 14 18 16 19 15 20
REMARK H PARENT
ROOT
ATOM      1  S   UNL     1     -31.793   9.318   7.331  1.00  0.00    -0.053 SA
ENDROOT
BRANCH   1   2
ATOM      2  C   UNL     1     -30.057   9.534   6.990  1.00  0.00    +0.019 A 
ATOM      3  C   UNL     1     -27.318   9.861   6.444  1.00  0.00    +0.017 A 
ATOM      4  C   UNL     1     -28.203  10.931   6.271  1.00  0.00    +0.013 A 
ATOM      5  C   UNL     1     -27.810   8.630   6.897  1.00  0.00    +0.013 A 
ATOM      6  C   UNL     1     -29.566  10.767   6.545  1.00  0.00    +0.017 A 
ATOM      7  C   UNL     1     -29.171   8.469   7.172  1.00  0.00    +0.017 A 
BRANCH   3   8
ATOM      8  C   UNL     1     -25.857   9.980   6.159  1.00  0.00    +0.159 C 
ATOM      9  O   UNL     1     -25.420  10.997   5.624  1.00  0.00    -0.295 OA
ATOM     10  C   UNL     1     -24.943   8.847   6.547  1.00  0.00    +0.093 C 
ENDBRANCH   3   8
ENDBRANCH   1   2
BRANCH   1  11
ATOM     11  S   UNL     1     -32.322   7.931   5.905  1.00  0.00    -0.053 SA
BRANCH  11  12
ATOM     12  C   UNL     1     -32.820   6.549   6.914  1.00  0.00    +0.019 A 
ATOM     13  C   UNL     1     -33.931   5.776   6.570  1.00  0.00    +0.017 A 
ATOM     14  C   UNL     1     -32.089   6.226   8.062  1.00  0.00    +0.017 A 
ATOM     15  C   UNL     1     -34.313   4.696   7.372  1.00  0.00    +0.013 A 
ATOM     16  C   UNL     1     -32.471   5.147   8.868  1.00  0.00    +0.013 A 
ATOM     17  C   UNL     1     -33.587   4.375   8.526  1.00  0.00    +0.017 A 
BRANCH  17  18
ATOM     18  C   UNL     1     -34.038   3.214   9.351  1.00  0.00    +0.159 C 
ATOM     19  O   UNL     1     -33.625   2.085   9.093  1.00  0.00    -0.295 OA
ATOM     20  C   UNL     1     -34.996   3.454  10.488  1.00  0.00    +0.093 C 
ENDBRANCH  17  18
ENDBRANCH  11  12
ENDBRANCH   1  11
TORSDOF 5
ENDMDL
MODEL 4
REMARK VINA RESULT:    -8.566      6.017      9.773
REMARK INTER + INTRA:         -11.425
REMARK INTER:                 -11.095
REMARK INTRA:                  -0.329
REMARK UNBOUND:                -0.355
REMARK SMILES CC(=O)c1ccc(SSc2ccc(C(C)=O)cc2)cc1
REMARK SMILES IDX 8 1 7 2 4 3 5 4 20 5 6 6 19 7 2 8 3 9 1 10 9 11 10 12 11 13
REMARK SMILES IDX 18 14 12 15 17 16 13 17 14 18 16 19 15 20
REMARK H PARENT
ROOT
ATOM      1  S   UNL     1     -25.871   6.671   7.151  1.00  0.00    -0.053 SA
ENDROOT
BRANCH   1   2
ATOM      2  C   UNL     1     -26.710   8.190   6.746  1.00  0.00    +0.019 A 
ATOM      3  C   UNL     1     -28.036  10.590   6.121  1.00  0.00    +0.017 A 
ATOM      4  C   UNL     1     -26.865  10.235   5.442  1.00  0.00    +0.013 A 
ATOM      5  C   UNL     1     -28.542   9.735   7.110  1.00  0.00    +0.013 A 
ATOM      6  C   UNL     1     -26.208   9.039   5.753  1.00  0.00    +0.017 A 
ATOM      7  C   UNL     1     -27.885   8.540   7.417  1.00  0.00    +0.017 A 
BRANCH   3   8
ATOM      8  C   UNL     1     -28.772  11.857   5.835  1.00  0.00    +0.159 C 
ATOM      9  O   UNL     1     -29.946  11.974   6.178  1.00  0.00    -0.295 OA
ATOM     10  C   UNL     1     -28.049  12.979   5.134  1.00  0.00    +0.093 C 
ENDBRANCH   3   8
ENDBRANCH   1   2
BRANCH   1  11
ATOM     11  S   UNL     1     -27.235   5.769   8.401  1.00  0.00    -0.053 SA
BRANCH  11  12
ATOM     12  C   UNL     1     -26.254   4.474   9.131  1.00  0.00    +0.019 A 
ATOM     13  C   UNL     1     -26.637   3.135   9.017  1.00  0.00    +0.017 A 
ATOM     14  C   UNL     1     -25.081   4.794   9.823  1.00  0.00    +0.017 A 
ATOM     15  C   UNL     1     -25.860   2.128   9.598  1.00  0.00    +0.013 A 
ATOM     16  C   UNL     1     -24.303   3.788  10.408  1.00  0.00    +0.013 A 
ATOM     17  C   UNL     1     -24.689   2.447  10.298  1.00  0.00    +0.017 A 
BRANCH  17  18
ATOM     18  C   UNL     1     -23.895   1.336  10.903  1.00  0.00    +0.159 C 
ATOM     19  O   UNL     1     -24.475   0.392  11.437  1.00  0.00    -0.295 OA
ATOM     20  C   UNL     1     -22.391   1.397  10.847  1.00  0.00    +0.093 C 
ENDBRANCH  17  18
ENDBRANCH  11  12
ENDBRANCH   1  11
TORSDOF 5
ENDMDL
MODEL 5
REMARK VINA RESULT:    -8.385      1.751      2.276
REMARK INTER + INTRA:         -11.191
REMARK INTER:                 -10.690
REMARK INTRA:                  -0.501
REMARK UNBOUND:                -0.355
REMARK SMILES CC(=O)c1ccc(SSc2ccc(C(C)=O)cc2)cc1
REMARK SMILES IDX 8 1 7 2 4 3 5 4 20 5 6 6 19 7 2 8 3 9 1 10 9 11 10 12 11 13
REMARK SMILES IDX 18 14 12 15 17 16 13 17 14 18 16 19 15 20
REMARK H PARENT
ROOT
ATOM      1  S   UNL     1     -32.187   7.967   6.031  1.00  0.00    -0.053 SA
ENDROOT
BRANCH   1   2
ATOM      2  C   UNL     1     -32.857   6.796   7.195  1.00  0.00    +0.019 A 
ATOM      3  C   UNL     1     -33.921   4.941   9.022  1.00  0.00    +0.017 A 
ATOM      4  C   UNL     1     -32.576   5.319   9.104  1.00  0.00    +0.013 A 
ATOM      5  C   UNL     1     -34.730   5.501   8.024  1.00  0.00    +0.013 A 
ATOM      6  C   UNL     1     -32.049   6.244   8.195  1.00  0.00    +0.017 A 
ATOM      7  C   UNL     1     -34.202   6.426   7.118  1.00  0.00    +0.017 A 
BRANCH   3   8
ATOM      8  C   UNL     1     -34.531   3.953   9.960  1.00  0.00    +0.159 C 
ATOM      9  O   UNL     1     -35.749   3.938  10.123  1.00  0.00    -0.295 OA
ATOM     10  C   UNL     1     -33.634   2.983  10.683  1.00  0.00    +0.093 C 
ENDBRANCH   3   8
ENDBRANCH   1   2
BRANCH   1  11
ATOM     11  S   UNL     1     -31.603   9.498   7.277  1.00  0.00    -0.053 SA
BRANCH  11  12
ATOM     12  C   UNL     1     -29.842   9.530   7.008  1.00  0.00    +0.019 A 
ATOM     13  C   UNL     1     -29.056   8.407   7.281  1.00  0.00    +0.017 A 
ATOM     14  C   UNL     1     -29.234  10.688   6.512  1.00  0.00    +0.017 A 
ATOM     15  C   UNL     1     -27.675   8.447   7.070  1.00  0.00    +0.013 A 
ATOM     16  C   UNL     1     -27.850  10.731   6.302  1.00  0.00    +0.013 A 
ATOM     17  C   UNL     1     -27.062   9.608   6.580  1.00  0.00    +0.017 A 
BRANCH  17  18
ATOM     18  C   UNL     1     -25.583   9.600   6.374  1.00  0.00    +0.159 C 
ATOM     19  O   UNL     1     -25.021  10.606   5.945  1.00  0.00    -0.295 OA
ATOM     20  C   UNL     1     -24.807   8.350   6.695  1.00  0.00    +0.093 C 
ENDBRANCH  17  18
ENDBRANCH  11  12
ENDBRANCH   1  11
TORSDOF 5
ENDMDL
MODEL 6
REMARK VINA RESULT:    -8.377      1.382      2.061
REMARK INTER + INTRA:         -11.181
REMARK INTER:                 -10.845
REMARK INTRA:                  -0.336
REMARK UNBOUND:                -0.355
REMARK SMILES CC(=O)c1ccc(SSc2ccc(C(C)=O)cc2)cc1
REMARK SMILES IDX 8 1 7 2 4 3 5 4 20 5 6 6 19 7 2 8 3 9 1 10 9 11 10 12 11 13
REMARK SMILES IDX 18 14 12 15 17 16 13 17 14 18 16 19 15 20
REMARK H PARENT
ROOT
ATOM      1  S   UNL     1     -31.692   7.299   7.003  1.00  0.00    -0.053 SA
ENDROOT
BRANCH   1   2
ATOM      2  C   UNL     1     -32.986   6.366   7.798  1.00  0.00    +0.019 A 
ATOM      3  C   UNL     1     -35.034   4.892   9.038  1.00  0.00    +0.017 A 
ATOM      4  C   UNL     1     -33.707   4.743   9.456  1.00  0.00    +0.013 A 
ATOM      5  C   UNL     1     -35.330   5.785   7.999  1.00  0.00    +0.013 A 
ATOM      6  C   UNL     1     -32.689   5.480   8.839  1.00  0.00    +0.017 A 
ATOM      7  C   UNL     1     -34.312   6.521   7.386  1.00  0.00    +0.017 A 
BRANCH   3   8
ATOM      8  C   UNL     1     -36.156   4.124   9.656  1.00  0.00    +0.159 C 
ATOM      9  O   UNL     1     -35.913   3.225  10.458  1.00  0.00    -0.295 OA
ATOM     10  C   UNL     1     -37.573   4.480   9.289  1.00  0.00    +0.093 C 
ENDBRANCH   3   8
ENDBRANCH   1   2
BRANCH   1  11
ATOM     11  S   UNL     1     -32.135   9.216   7.609  1.00  0.00    -0.053 SA
BRANCH  11  12
ATOM     12  C   UNL     1     -30.755  10.130   6.951  1.00  0.00    +0.019 A 
ATOM     13  C   UNL     1     -30.921  11.436   6.481  1.00  0.00    +0.017 A 
ATOM     14  C   UNL     1     -29.487   9.543   6.907  1.00  0.00    +0.017 A 
ATOM     15  C   UNL     1     -29.831  12.142   5.964  1.00  0.00    +0.013 A 
ATOM     16  C   UNL     1     -28.394  10.246   6.387  1.00  0.00    +0.013 A 
ATOM     17  C   UNL     1     -28.560  11.552   5.912  1.00  0.00    +0.017 A 
BRANCH  17  18
ATOM     18  C   UNL     1     -27.429  12.347   5.347  1.00  0.00    +0.159 C 
ATOM     19  O   UNL     1     -27.643  13.458   4.868  1.00  0.00    -0.295 OA
ATOM     20  C   UNL     1     -26.041  11.763   5.375  1.00  0.00    +0.093 C 
ENDBRANCH  17  18
ENDBRANCH  11  12
ENDBRANCH   1  11
TORSDOF 5
ENDMDL
MODEL 7
REMARK VINA RESULT:    -8.276      8.094      8.834
REMARK INTER + INTRA:         -11.051
REMARK INTER:                 -10.694
REMARK INTRA:                  -0.357
REMARK UNBOUND:                -0.355
REMARK SMILES CC(=O)c1ccc(SSc2ccc(C(C)=O)cc2)cc1
REMARK SMILES IDX 8 1 7 2 4 3 5 4 20 5 6 6 19 7 2 8 3 9 1 10 9 11 10 12 11 13
REMARK SMILES IDX 18 14 12 15 17 16 13 17 14 18 16 19 15 20
REMARK H PARENT
ROOT
ATOM      1  S   UNL     1     -25.443   4.071  10.842  1.00  0.00    -0.053 SA
ENDROOT
BRANCH   1   2
ATOM      2  C   UNL     1     -24.513   2.551  10.812  1.00  0.00    +0.019 A 
ATOM      3  C   UNL     1     -23.055   0.147  10.752  1.00  0.00    +0.017 A 
ATOM      4  C   UNL     1     -22.387   1.374  10.842  1.00  0.00    +0.013 A 
ATOM      5  C   UNL     1     -24.455   0.130  10.697  1.00  0.00    +0.013 A 
ATOM      6  C   UNL     1     -23.115   2.569  10.874  1.00  0.00    +0.017 A 
ATOM      7  C   UNL     1     -25.180   1.325  10.731  1.00  0.00    +0.017 A 
BRANCH   3   8
ATOM      8  C   UNL     1     -22.327  -1.156  10.707  1.00  0.00    +0.159 C 
ATOM      9  O   UNL     1     -21.290  -1.299  11.351  1.00  0.00    -0.295 OA
ATOM     10  C   UNL     1     -22.890  -2.278   9.874  1.00  0.00    +0.093 C 
ENDBRANCH   3   8
ENDBRANCH   1   2
BRANCH   1  11
ATOM     11  S   UNL     1     -26.742   3.790   9.270  1.00  0.00    -0.053 SA
BRANCH  11  12
ATOM     12  C   UNL     1     -26.511   5.290   8.339  1.00  0.00    +0.019 A 
ATOM     13  C   UNL     1     -25.337   5.509   7.613  1.00  0.00    +0.017 A 
ATOM     14  C   UNL     1     -27.515   6.264   8.325  1.00  0.00    +0.017 A 
ATOM     15  C   UNL     1     -25.166   6.693   6.889  1.00  0.00    +0.013 A 
ATOM     16  C   UNL     1     -27.346   7.451   7.603  1.00  0.00    +0.013 A 
ATOM     17  C   UNL     1     -26.169   7.672   6.880  1.00  0.00    +0.017 A 
BRANCH  17  18
ATOM     18  C   UNL     1     -25.937   8.921   6.093  1.00  0.00    +0.159 C 
ATOM     19  O   UNL     1     -24.988   9.651   6.373  1.00  0.00    -0.295 OA
ATOM     20  C   UNL     1     -26.879   9.261   4.969  1.00  0.00    +0.093 C 
ENDBRANCH  17  18
ENDBRANCH  11  12
ENDBRANCH   1  11
TORSDOF 5
ENDMDL
MODEL 8
REMARK VINA RESULT:    -8.006      5.142      9.412
REMARK INTER + INTRA:         -10.701
REMARK INTER:                 -10.288
REMARK INTRA:                  -0.414
REMARK UNBOUND:                -0.355
REMARK SMILES CC(=O)c1ccc(SSc2ccc(C(C)=O)cc2)cc1
REMARK SMILES IDX 8 1 7 2 4 3 5 4 20 5 6 6 19 7 2 8 3 9 1 10 9 11 10 12 11 13
REMARK SMILES IDX 18 14 12 15 17 16 13 17 14 18 16 19 15 20
REMARK H PARENT
ROOT
ATOM      1  S   UNL     1     -24.899   7.794   7.362  1.00  0.00    -0.053 SA
ENDROOT
BRANCH   1   2
ATOM      2  C   UNL     1     -26.082   9.043   6.894  1.00  0.00    +0.019 A 
ATOM      3  C   UNL     1     -27.954  11.013   6.171  1.00  0.00    +0.017 A 
ATOM      4  C   UNL     1     -26.612  11.144   5.794  1.00  0.00    +0.013 A 
ATOM      5  C   UNL     1     -28.353   9.890   6.907  1.00  0.00    +0.013 A 
ATOM      6  C   UNL     1     -25.682  10.161   6.153  1.00  0.00    +0.017 A 
ATOM      7  C   UNL     1     -27.423   8.908   7.263  1.00  0.00    +0.017 A 
BRANCH   3   8
ATOM      8  C   UNL     1     -28.984  12.036   5.821  1.00  0.00    +0.159 C 
ATOM      9  O   UNL     1     -28.679  12.992   5.112  1.00  0.00    -0.295 OA
ATOM     10  C   UNL     1     -30.388  11.865   6.341  1.00  0.00    +0.093 C 
ENDBRANCH   3   8
ENDBRANCH   1   2
BRANCH   1  11
ATOM     11  S   UNL     1     -25.838   6.079   6.718  1.00  0.00    -0.053 SA
BRANCH  11  12
ATOM     12  C   UNL     1     -25.986   5.157   8.235  1.00  0.00    +0.019 A 
ATOM     13  C   UNL     1     -24.946   5.146   9.169  1.00  0.00    +0.017 A 
ATOM     14  C   UNL     1     -27.156   4.440   8.504  1.00  0.00    +0.017 A 
ATOM     15  C   UNL     1     -25.073   4.415  10.355  1.00  0.00    +0.013 A 
ATOM     16  C   UNL     1     -27.285   3.706   9.689  1.00  0.00    +0.013 A 
ATOM     17  C   UNL     1     -26.242   3.690  10.623  1.00  0.00    +0.017 A 
BRANCH  17  18
ATOM     18  C   UNL     1     -26.327   2.924  11.902  1.00  0.00    +0.159 C 
ATOM     19  O   UNL     1     -26.505   3.522  12.961  1.00  0.00    -0.295 OA
ATOM     20  C   UNL     1     -26.191   1.424  11.866  1.00  0.00    +0.093 C 
ENDBRANCH  17  18
ENDBRANCH  11  12
ENDBRANCH   1  11
TORSDOF 5
ENDMDL
MODEL 9
REMARK VINA RESULT:    -7.699      2.839      3.586
REMARK INTER + INTRA:         -10.304
REMARK INTER:                  -9.849
REMARK INTRA:                  -0.455
REMARK UNBOUND:                -0.355
REMARK SMILES CC(=O)c1ccc(SSc2ccc(C(C)=O)cc2)cc1
REMARK SMILES IDX 8 1 7 2 4 3 5 4 20 5 6 6 19 7 2 8 3 9 1 10 9 11 10 12 11 13
REMARK SMILES IDX 18 14 12 15 17 16 13 17 14 18 16 19 15 20
REMARK H PARENT
ROOT
ATOM      1  S   UNL     1     -32.524   5.449   8.660  1.00  0.00    -0.053 SA
ENDROOT
BRANCH   1   2
ATOM      2  C   UNL     1     -34.170   5.185   9.289  1.00  0.00    +0.019 A 
ATOM      3  C   UNL     1     -36.763   4.772  10.298  1.00  0.00    +0.017 A 
ATOM      4  C   UNL     1     -36.577   5.457   9.091  1.00  0.00    +0.013 A 
ATOM      5  C   UNL     1     -35.645   4.292  10.993  1.00  0.00    +0.013 A 
ATOM      6  C   UNL     1     -35.285   5.659   8.590  1.00  0.00    +0.017 A 
ATOM      7  C   UNL     1     -34.356   4.495  10.490  1.00  0.00    +0.017 A 
BRANCH   3   8
ATOM      8  C   UNL     1     -38.117   4.536  10.881  1.00  0.00    +0.159 C 
ATOM      9  O   UNL     1     -38.883   5.482  11.048  1.00  0.00    -0.295 OA
ATOM     10  C   UNL     1     -38.521   3.131  11.243  1.00  0.00    +0.093 C 
ENDBRANCH   3   8
ENDBRANCH   1   2
BRANCH   1  11
ATOM     11  S   UNL     1     -32.918   6.247   6.803  1.00  0.00    -0.053 SA
BRANCH  11  12
ATOM     12  C   UNL     1     -32.144   7.847   6.926  1.00  0.00    +0.019 A 
ATOM     13  C   UNL     1     -30.942   8.113   6.265  1.00  0.00    +0.017 A 
ATOM     14  C   UNL     1     -32.744   8.855   7.688  1.00  0.00    +0.017 A 
ATOM     15  C   UNL     1     -30.342   9.371   6.373  1.00  0.00    +0.013 A 
ATOM     16  C   UNL     1     -32.145  10.115   7.799  1.00  0.00    +0.013 A 
ATOM     17  C   UNL     1     -30.938  10.380   7.141  1.00  0.00    +0.017 A 
BRANCH  17  18
ATOM     18  C   UNL     1     -30.257  11.707   7.227  1.00  0.00    +0.159 C 
ATOM     19  O   UNL     1     -30.480  12.447   8.182  1.00  0.00    -0.295 OA
ATOM     20  C   UNL     1     -29.305  12.111   6.131  1.00  0.00    +0.093 C 
ENDBRANCH  17  18
ENDBRANCH  11  12
ENDBRANCH   1  11
TORSDOF 5
ENDMDL
