MODEL 1
REMARK VINA RESULT:    -6.519      0.000      0.000
REMARK INTER + INTRA:          -7.243
REMARK INTER:                  -7.091
REMARK INTRA:                  -0.152
REMARK UNBOUND:                -0.152
REMARK SMILES CC(C)(O)c1ccccc1
REMARK SMILES IDX 1 1 2 2 3 3 4 4 5 6 6 7 10 8 7 9 9 10 8 11
REMARK H PARENT 4 5
ROOT
ATOM      1  C   UNL     1     -30.583   9.393   7.023  1.00  0.00    +0.047 C 
ATOM      2  C   UNL     1     -30.503  10.905   6.779  1.00  0.00    +0.084 C 
ATOM      3  C   UNL     1     -30.882  11.647   8.067  1.00  0.00    +0.047 C 
ENDROOT
BRANCH   2   4
ATOM      4  O   UNL     1     -31.520  11.241   5.823  1.00  0.00    -0.386 OA
ATOM      5  H   UNL     1     -31.062  11.491   5.001  1.00  0.00    +0.211 HD
ENDBRANCH   2   4
BRANCH   2   6
ATOM      6  C   UNL     1     -29.141  11.280   6.197  1.00  0.00    -0.017 A 
ATOM      7  C   UNL     1     -28.884  12.522   5.594  1.00  0.00    +0.006 A 
ATOM      8  C   UNL     1     -28.078  10.358   6.274  1.00  0.00    +0.006 A 
ATOM      9  C   UNL     1     -27.620  12.824   5.079  1.00  0.00    +0.000 A 
ATOM     10  C   UNL     1     -26.816  10.660   5.760  1.00  0.00    +0.000 A 
ATOM     11  C   UNL     1     -26.588  11.895   5.160  1.00  0.00    +0.000 A 
ENDBRANCH   2   6
TORSDOF 2
ENDMDL
MODEL 2
REMARK VINA RESULT:    -6.402      2.148      4.033
REMARK INTER + INTRA:          -7.115
REMARK INTER:                  -6.963
REMARK INTRA:                  -0.152
REMARK UNBOUND:                -0.152
REMARK SMILES CC(C)(O)c1ccccc1
REMARK SMILES IDX 1 1 2 2 3 3 4 4 5 6 6 7 10 8 7 9 9 10 8 11
REMARK H PARENT 4 5
ROOT
ATOM      1  C   UNL     1     -25.403  10.278   6.201  1.00  0.00    +0.047 C 
ATOM      2  C   UNL     1     -26.652   9.476   5.814  1.00  0.00    +0.084 C 
ATOM      3  C   UNL     1     -26.600   8.100   6.489  1.00  0.00    +0.047 C 
ENDROOT
BRANCH   2   4
ATOM      4  O   UNL     1     -26.579   9.222   4.404  1.00  0.00    -0.386 OA
ATOM      5  H   UNL     1     -26.071   9.954   4.012  1.00  0.00    +0.211 HD
ENDBRANCH   2   4
BRANCH   2   6
ATOM      6  C   UNL     1     -27.915  10.286   6.102  1.00  0.00    -0.017 A 
ATOM      7  C   UNL     1     -28.966   9.804   6.899  1.00  0.00    +0.006 A 
ATOM      8  C   UNL     1     -28.043  11.583   5.565  1.00  0.00    +0.006 A 
ATOM      9  C   UNL     1     -30.102  10.582   7.139  1.00  0.00    +0.000 A 
ATOM     10  C   UNL     1     -29.178  12.360   5.805  1.00  0.00    +0.000 A 
ATOM     11  C   UNL     1     -30.209  11.858   6.592  1.00  0.00    +0.000 A 
ENDBRANCH   2   6
TORSDOF 2
ENDMDL
MODEL 3
REMARK VINA RESULT:    -6.234      2.461      3.981
REMARK INTER + INTRA:          -6.933
REMARK INTER:                  -6.785
REMARK INTRA:                  -0.148
REMARK UNBOUND:                -0.152
REMARK SMILES CC(C)(O)c1ccccc1
REMARK SMILES IDX 1 1 2 2 3 3 4 4 5 6 6 7 10 8 7 9 9 10 8 11
REMARK H PARENT 4 5
ROOT
ATOM      1  C   UNL     1     -32.411   7.373   5.745  1.00  0.00    +0.047 C 
ATOM      2  C   UNL     1     -32.272   7.849   7.196  1.00  0.00    +0.084 C 
ATOM      3  C   UNL     1     -31.844   6.669   8.078  1.00  0.00    +0.047 C 
ENDROOT
BRANCH   2   4
ATOM      4  O   UNL     1     -33.580   8.222   7.653  1.00  0.00    -0.386 OA
ATOM      5  H   UNL     1     -34.216   7.657   7.178  1.00  0.00    +0.211 HD
ENDBRANCH   2   4
BRANCH   2   6
ATOM      6  C   UNL     1     -31.360   9.073   7.271  1.00  0.00    -0.017 A 
ATOM      7  C   UNL     1     -29.996   9.028   6.944  1.00  0.00    +0.006 A 
ATOM      8  C   UNL     1     -31.898  10.313   7.669  1.00  0.00    +0.006 A 
ATOM      9  C   UNL     1     -29.199  10.174   7.022  1.00  0.00    +0.000 A 
ATOM     10  C   UNL     1     -31.102  11.458   7.747  1.00  0.00    +0.000 A 
ATOM     11  C   UNL     1     -29.751  11.387   7.424  1.00  0.00    +0.000 A 
ENDBRANCH   2   6
TORSDOF 2
ENDMDL
MODEL 4
REMARK VINA RESULT:    -6.065      2.068      3.800
REMARK INTER + INTRA:          -6.749
REMARK INTER:                  -6.601
REMARK INTRA:                  -0.149
REMARK UNBOUND:                -0.152
REMARK SMILES CC(C)(O)c1ccccc1
REMARK SMILES IDX 1 1 2 2 3 3 4 4 5 6 6 7 10 8 7 9 9 10 8 11
REMARK H PARENT 4 5
ROOT
ATOM      1  C   UNL     1     -26.889   8.869   5.049  1.00  0.00    +0.047 C 
ATOM      2  C   UNL     1     -26.868   9.942   6.144  1.00  0.00    +0.084 C 
ATOM      3  C   UNL     1     -25.791  10.983   5.814  1.00  0.00    +0.047 C 
ENDROOT
BRANCH   2   4
ATOM      4  O   UNL     1     -26.440   9.309   7.358  1.00  0.00    -0.386 OA
ATOM      5  H   UNL     1     -25.895   9.959   7.837  1.00  0.00    +0.211 HD
ENDBRANCH   2   4
BRANCH   2   6
ATOM      6  C   UNL     1     -28.270  10.513   6.358  1.00  0.00    -0.017 A 
ATOM      7  C   UNL     1     -28.679  11.749   5.833  1.00  0.00    +0.006 A 
ATOM      8  C   UNL     1     -29.213   9.772   7.099  1.00  0.00    +0.006 A 
ATOM      9  C   UNL     1     -29.974  12.230   6.050  1.00  0.00    +0.000 A 
ATOM     10  C   UNL     1     -30.506  10.253   7.315  1.00  0.00    +0.000 A 
ATOM     11  C   UNL     1     -30.886  11.484   6.790  1.00  0.00    +0.000 A 
ENDBRANCH   2   6
TORSDOF 2
ENDMDL
MODEL 5
REMARK VINA RESULT:    -5.717      2.594      4.357
REMARK INTER + INTRA:          -6.371
REMARK INTER:                  -6.221
REMARK INTRA:                  -0.150
REMARK UNBOUND:                -0.152
REMARK SMILES CC(C)(O)c1ccccc1
REMARK SMILES IDX 1 1 2 2 3 3 4 4 5 6 6 7 10 8 7 9 9 10 8 11
REMARK H PARENT 4 5
ROOT
ATOM      1  C   UNL     1     -27.398   7.440   7.493  1.00  0.00    +0.047 C 
ATOM      2  C   UNL     1     -27.499   8.816   6.823  1.00  0.00    +0.084 C 
ATOM      3  C   UNL     1     -27.102   8.692   5.347  1.00  0.00    +0.047 C 
ENDROOT
BRANCH   2   4
ATOM      4  O   UNL     1     -26.507   9.661   7.424  1.00  0.00    -0.386 OA
ATOM      5  H   UNL     1     -26.980  10.419   7.811  1.00  0.00    +0.211 HD
ENDBRANCH   2   4
BRANCH   2   6
ATOM      6  C   UNL     1     -28.878   9.429   7.069  1.00  0.00    -0.017 A 
ATOM      7  C   UNL     1     -30.057   8.667   7.100  1.00  0.00    +0.006 A 
ATOM      8  C   UNL     1     -28.989  10.816   7.294  1.00  0.00    +0.006 A 
ATOM      9  C   UNL     1     -31.297   9.269   7.333  1.00  0.00    +0.000 A 
ATOM     10  C   UNL     1     -30.227  11.417   7.527  1.00  0.00    +0.000 A 
ATOM     11  C   UNL     1     -31.382  10.642   7.545  1.00  0.00    +0.000 A 
ENDBRANCH   2   6
TORSDOF 2
ENDMDL
MODEL 6
REMARK VINA RESULT:    -5.463      6.616      9.235
REMARK INTER + INTRA:          -6.094
REMARK INTER:                  -5.943
REMARK INTRA:                  -0.152
REMARK UNBOUND:                -0.152
REMARK SMILES CC(C)(O)c1ccccc1
REMARK SMILES IDX 1 1 2 2 3 3 4 4 5 6 6 7 10 8 7 9 9 10 8 11
REMARK H PARENT 4 5
ROOT
ATOM      1  C   UNL     1     -32.496   6.237   7.892  1.00  0.00    +0.047 C 
ATOM      2  C   UNL     1     -33.859   6.503   7.244  1.00  0.00    +0.084 C 
ATOM      3  C   UNL     1     -33.703   6.507   5.718  1.00  0.00    +0.047 C 
ENDROOT
BRANCH   2   4
ATOM      4  O   UNL     1     -34.251   7.837   7.598  1.00  0.00    -0.386 OA
ATOM      5  H   UNL     1     -35.060   7.760   8.134  1.00  0.00    +0.211 HD
ENDBRANCH   2   4
BRANCH   2   6
ATOM      6  C   UNL     1     -34.905   5.527   7.781  1.00  0.00    -0.017 A 
ATOM      7  C   UNL     1     -35.888   5.898   8.711  1.00  0.00    +0.006 A 
ATOM      8  C   UNL     1     -34.909   4.195   7.320  1.00  0.00    +0.006 A 
ATOM      9  C   UNL     1     -36.829   4.972   9.172  1.00  0.00    +0.000 A 
ATOM     10  C   UNL     1     -35.848   3.270   7.780  1.00  0.00    +0.000 A 
ATOM     11  C   UNL     1     -36.808   3.659   8.708  1.00  0.00    +0.000 A 
ENDBRANCH   2   6
TORSDOF 2
ENDMDL
MODEL 7
REMARK VINA RESULT:    -5.463      5.505      7.247
REMARK INTER + INTRA:          -6.094
REMARK INTER:                  -5.942
REMARK INTRA:                  -0.152
REMARK UNBOUND:                -0.152
REMARK SMILES CC(C)(O)c1ccccc1
REMARK SMILES IDX 1 1 2 2 3 3 4 4 5 6 6 7 10 8 7 9 9 10 8 11
REMARK H PARENT 4 5
ROOT
ATOM      1  C   UNL     1     -34.774   3.874   7.920  1.00  0.00    +0.047 C 
ATOM      2  C   UNL     1     -33.998   5.083   8.457  1.00  0.00    +0.084 C 
ATOM      3  C   UNL     1     -32.936   4.603   9.453  1.00  0.00    +0.047 C 
ENDROOT
BRANCH   2   4
ATOM      4  O   UNL     1     -34.916   5.879   9.220  1.00  0.00    -0.386 OA
ATOM      5  H   UNL     1     -35.524   6.296   8.583  1.00  0.00    +0.211 HD
ENDBRANCH   2   4
BRANCH   2   6
ATOM      6  C   UNL     1     -33.461   5.928   7.301  1.00  0.00    -0.017 A 
ATOM      7  C   UNL     1     -32.349   6.775   7.428  1.00  0.00    +0.006 A 
ATOM      8  C   UNL     1     -34.087   5.853   6.041  1.00  0.00    +0.006 A 
ATOM      9  C   UNL     1     -31.889   7.526   6.343  1.00  0.00    +0.000 A 
ATOM     10  C   UNL     1     -33.627   6.603   4.957  1.00  0.00    +0.000 A 
ATOM     11  C   UNL     1     -32.528   7.442   5.109  1.00  0.00    +0.000 A 
ENDBRANCH   2   6
TORSDOF 2
ENDMDL
MODEL 8
REMARK VINA RESULT:    -5.324     12.503     14.067
REMARK INTER + INTRA:          -5.943
REMARK INTER:                  -5.789
REMARK INTRA:                  -0.153
REMARK UNBOUND:                -0.152
REMARK SMILES CC(C)(O)c1ccccc1
REMARK SMILES IDX 1 1 2 2 3 3 4 4 5 6 6 7 10 8 7 9 9 10 8 11
REMARK H PARENT 4 5
ROOT
ATOM      1  C   UNL     1     -34.392  -2.769   0.266  1.00  0.00    +0.047 C 
ATOM      2  C   UNL     1     -33.803  -1.665  -0.620  1.00  0.00    +0.084 C 
ATOM      3  C   UNL     1     -34.803  -1.316  -1.729  1.00  0.00    +0.047 C 
ENDROOT
BRANCH   2   4
ATOM      4  O   UNL     1     -32.657  -2.214  -1.287  1.00  0.00    -0.386 OA
ATOM      5  H   UNL     1     -32.581  -3.141  -0.997  1.00  0.00    +0.211 HD
ENDBRANCH   2   4
BRANCH   2   6
ATOM      6  C   UNL     1     -33.351  -0.480   0.234  1.00  0.00    -0.017 A 
ATOM      7  C   UNL     1     -32.890  -0.622   1.552  1.00  0.00    +0.006 A 
ATOM      8  C   UNL     1     -33.374   0.818  -0.316  1.00  0.00    +0.006 A 
ATOM      9  C   UNL     1     -32.482   0.490   2.295  1.00  0.00    +0.000 A 
ATOM     10  C   UNL     1     -32.967   1.927   0.426  1.00  0.00    +0.000 A 
ATOM     11  C   UNL     1     -32.521   1.763   1.734  1.00  0.00    +0.000 A 
ENDBRANCH   2   6
TORSDOF 2
ENDMDL
MODEL 9
REMARK VINA RESULT:    -5.188      4.352      5.990
REMARK INTER + INTRA:          -5.795
REMARK INTER:                  -5.643
REMARK INTRA:                  -0.152
REMARK UNBOUND:                -0.152
REMARK SMILES CC(C)(O)c1ccccc1
REMARK SMILES IDX 1 1 2 2 3 3 4 4 5 6 6 7 10 8 7 9 9 10 8 11
REMARK H PARENT 4 5
ROOT
ATOM      1  C   UNL     1     -34.139   5.218   5.725  1.00  0.00    +0.047 C 
ATOM      2  C   UNL     1     -34.045   6.032   7.021  1.00  0.00    +0.084 C 
ATOM      3  C   UNL     1     -34.422   5.138   8.209  1.00  0.00    +0.047 C 
ENDROOT
BRANCH   2   4
ATOM      4  O   UNL     1     -35.055   7.050   6.963  1.00  0.00    -0.386 OA
ATOM      5  H   UNL     1     -35.753   6.721   6.370  1.00  0.00    +0.211 HD
ENDBRANCH   2   4
BRANCH   2   6
ATOM      6  C   UNL     1     -32.677   6.705   7.131  1.00  0.00    -0.017 A 
ATOM      7  C   UNL     1     -32.252   7.716   6.254  1.00  0.00    +0.006 A 
ATOM      8  C   UNL     1     -31.797   6.319   8.161  1.00  0.00    +0.006 A 
ATOM      9  C   UNL     1     -30.993   8.307   6.395  1.00  0.00    +0.000 A 
ATOM     10  C   UNL     1     -30.540   6.909   8.301  1.00  0.00    +0.000 A 
ATOM     11  C   UNL     1     -30.137   7.904   7.416  1.00  0.00    +0.000 A 
ENDBRANCH   2   6
TORSDOF 2
ENDMDL
