REMARK SMILES CC(=O)OC[C@@H]1O[C@H](O[C@H]2[C@H](COC(C)=O)OC=C[C@H]2OC(C)=O)[C@H](OC(C)=O)[C@H](OC(C)=O)[C@@H]1OC(C)=O
REMARK SMILES IDX 9 1 10 2 11 3 17 4 18 5 20 6 19 7 12 8 13 9 14 10 16 11
REMARK SMILES IDX 15 12 21 13 22 14 24 15 23 16 8 17 7 18 25 19 6 20 30 21
REMARK SMILES IDX 35 22 26 23 27 24 29 25 28 26 5 27 4 28 2 29 3 30 1 31 31 32
REMARK SMILES IDX 32 33 34 34 33 35 36 36 37 37 39 38 38 39
REMARK H PARENT
ROOT
ATOM      1  O   UNL     1       1.857  -0.555   0.491  1.00  0.00    -0.337 OA
ENDROOT
BRANCH   1   2
ATOM      2  C   UNL     1       2.985   0.102  -0.113  1.00  0.00    +0.211 C 
ATOM      3  C   UNL     1       4.281  -0.497   0.467  1.00  0.00    +0.243 C 
ATOM      4  O   UNL     1       5.462   0.131  -0.077  1.00  0.00    -0.492 OA
ATOM      5  C   UNL     1       5.438   0.327  -1.429  1.00  0.00    +0.187 C 
ATOM      6  C   UNL     1       3.002  -0.089  -1.650  1.00  0.00    +0.235 C 
ATOM      7  C   UNL     1       4.359   0.214  -2.210  1.00  0.00    +0.058 C 
BRANCH   3   8
ATOM      8  C   UNL     1       4.345  -0.357   1.994  1.00  0.00    +0.280 C 
BRANCH   8   9
ATOM      9  O   UNL     1       4.201   1.026   2.369  1.00  0.00    -0.462 OA
BRANCH   9  10
ATOM     10  C   UNL     1       4.263   1.253   3.709  1.00  0.00    +0.302 C 
ATOM     11  O   UNL     1       4.385   0.393   4.569  1.00  0.00    -0.253 OA
ATOM     12  C   UNL     1       4.151   2.720   3.986  1.00  0.00    +0.139 C 
ENDBRANCH   9  10
ENDBRANCH   8   9
ENDBRANCH   3   8
BRANCH   6  13
ATOM     13  O   UNL     1       2.714  -1.467  -1.960  1.00  0.00    -0.455 OA
BRANCH  13  14
ATOM     14  C   UNL     1       1.857  -1.691  -2.989  1.00  0.00    +0.303 C 
ATOM     15  O   UNL     1       1.371  -0.844  -3.725  1.00  0.00    -0.253 OA
ATOM     16  C   UNL     1       1.593  -3.162  -3.113  1.00  0.00    +0.139 C 
ENDBRANCH  13  14
ENDBRANCH   6  13
ENDBRANCH   1   2
BRANCH   1  17
ATOM     17  C   UNL     1       0.694   0.274   0.589  1.00  0.00    +0.296 C 
ATOM     18  O   UNL     1       0.323   0.779  -0.685  1.00  0.00    -0.338 OA
ATOM     19  C   UNL     1      -0.458  -0.568   1.176  1.00  0.00    +0.277 C 
ATOM     20  C   UNL     1      -0.837   1.624  -0.695  1.00  0.00    +0.204 C 
ATOM     21  C   UNL     1      -1.735   0.290   1.335  1.00  0.00    +0.266 C 
ATOM     22  C   UNL     1      -1.612   1.663   0.641  1.00  0.00    +0.253 C 
BRANCH  19  23
ATOM     23  O   UNL     1      -0.670  -1.711   0.306  1.00  0.00    -0.453 OA
BRANCH  23  24
ATOM     24  C   UNL     1      -1.213  -2.808   0.895  1.00  0.00    +0.303 C 
ATOM     25  O   UNL     1      -1.591  -2.877   2.055  1.00  0.00    -0.253 OA
ATOM     26  C   UNL     1      -1.258  -3.946  -0.076  1.00  0.00    +0.139 C 
ENDBRANCH  23  24
ENDBRANCH  19  23
BRANCH  20  27
ATOM     27  C   UNL     1      -1.687   1.280  -1.927  1.00  0.00    +0.269 C 
BRANCH  27  28
ATOM     28  O   UNL     1      -2.188  -0.060  -1.839  1.00  0.00    -0.463 OA
BRANCH  28  29
ATOM     29  C   UNL     1      -3.249  -0.329  -2.645  1.00  0.00    +0.302 C 
ATOM     30  O   UNL     1      -3.834   0.482  -3.349  1.00  0.00    -0.253 OA
ATOM     31  C   UNL     1      -3.604  -1.780  -2.559  1.00  0.00    +0.139 C 
ENDBRANCH  28  29
ENDBRANCH  27  28
ENDBRANCH  20  27
BRANCH  21  32
ATOM     32  O   UNL     1      -2.909  -0.429   0.898  1.00  0.00    -0.454 OA
BRANCH  32  33
ATOM     33  C   UNL     1      -4.040  -0.242   1.633  1.00  0.00    +0.303 C 
ATOM     34  O   UNL     1      -4.157   0.507   2.592  1.00  0.00    -0.253 OA
ATOM     35  C   UNL     1      -5.151  -1.080   1.081  1.00  0.00    +0.139 C 
ENDBRANCH  32  33
ENDBRANCH  21  32
BRANCH  22  36
ATOM     36  O   UNL     1      -2.904   2.287   0.519  1.00  0.00    -0.455 OA
BRANCH  36  37
ATOM     37  C   UNL     1      -2.914   3.646   0.479  1.00  0.00    +0.303 C 
ATOM     38  O   UNL     1      -1.916   4.351   0.476  1.00  0.00    -0.253 OA
ATOM     39  C   UNL     1      -4.322   4.152   0.423  1.00  0.00    +0.139 C 
ENDBRANCH  36  37
ENDBRANCH  22  36
ENDBRANCH   1  17
TORSDOF 16
