MODEL 1
REMARK VINA RESULT:    -6.496      0.000      0.000
REMARK INTER + INTRA:          -6.875
REMARK INTER:                  -6.875
REMARK INTRA:                   0.000
REMARK UNBOUND:                 0.000
REMARK SMILES Cn1ncc2c(O)nc(S)nc21
REMARK SMILES IDX 1 1 2 2 3 3 4 4 5 5 6 6 8 7 9 8 11 9 12 10 10 11 7 13
REMARK H PARENT 10 12 7 14
ROOT
ATOM      1  C   UNL     1     -26.361   8.409   6.933  1.00  0.00    +0.176 C 
ATOM      2  N   UNL     1     -26.598   9.685   6.305  1.00  0.00    -0.250 N 
ATOM      3  N   UNL     1     -25.609  10.270   5.587  1.00  0.00    -0.179 NA
ATOM      4  C   UNL     1     -26.168  11.410   5.163  1.00  0.00    +0.151 A 
ATOM      5  C   UNL     1     -27.495  11.557   5.601  1.00  0.00    +0.101 A 
ATOM      6  C   UNL     1     -28.537  12.458   5.502  1.00  0.00    +0.226 A 
ATOM      7  N   UNL     1     -29.716  12.228   6.095  1.00  0.00    -0.187 NA
ATOM      8  C   UNL     1     -29.839  11.077   6.793  1.00  0.00    +0.189 A 
ATOM      9  N   UNL     1     -28.905  10.121   6.966  1.00  0.00    -0.203 NA
ATOM     10  C   UNL     1     -27.751  10.420   6.343  1.00  0.00    +0.166 A 
ENDROOT
BRANCH   8  11
ATOM     11  S   UNL     1     -31.411  10.806   7.563  1.00  0.00    -0.103 SA
ATOM     12  H   UNL     1     -31.609  12.103   7.819  1.00  0.00    +0.111 HD
ENDBRANCH   8  11
BRANCH   6  13
ATOM     13  O   UNL     1     -28.448  13.628   4.807  1.00  0.00    -0.493 OA
ATOM     14  H   UNL     1     -29.063  14.193   5.307  1.00  0.00    +0.295 HD
ENDBRANCH   6  13
TORSDOF 2
ENDMDL
MODEL 2
REMARK VINA RESULT:    -6.075      2.247      3.659
REMARK INTER + INTRA:          -6.430
REMARK INTER:                  -6.430
REMARK INTRA:                   0.000
REMARK UNBOUND:                 0.000
REMARK SMILES Cn1ncc2c(O)nc(S)nc21
REMARK SMILES IDX 1 1 2 2 3 3 4 4 5 5 6 6 8 7 9 8 11 9 12 10 10 11 7 13
REMARK H PARENT 10 12 7 14
ROOT
ATOM      1  C   UNL     1     -30.716  10.403   7.280  1.00  0.00    +0.176 C 
ATOM      2  N   UNL     1     -29.581  10.969   6.596  1.00  0.00    -0.250 N 
ATOM      3  N   UNL     1     -29.677  12.206   6.053  1.00  0.00    -0.179 NA
ATOM      4  C   UNL     1     -28.467  12.403   5.514  1.00  0.00    +0.151 A 
ATOM      5  C   UNL     1     -27.607  11.309   5.707  1.00  0.00    +0.101 A 
ATOM      6  C   UNL     1     -26.314  10.928   5.406  1.00  0.00    +0.226 A 
ATOM      7  N   UNL     1     -25.832   9.736   5.783  1.00  0.00    -0.187 NA
ATOM      8  C   UNL     1     -26.667   8.926   6.471  1.00  0.00    +0.189 A 
ATOM      9  N   UNL     1     -27.943   9.176   6.826  1.00  0.00    -0.203 NA
ATOM     10  C   UNL     1     -28.356  10.388   6.413  1.00  0.00    +0.166 A 
ENDROOT
BRANCH   8  11
ATOM     11  S   UNL     1     -25.997   7.358   6.954  1.00  0.00    -0.103 SA
ATOM     12  H   UNL     1     -25.302   7.206   5.822  1.00  0.00    +0.111 HD
ENDBRANCH   8  11
BRANCH   6  13
ATOM     13  O   UNL     1     -25.444  11.719   4.715  1.00  0.00    -0.493 OA
ATOM     14  H   UNL     1     -25.967  11.928   3.921  1.00  0.00    +0.295 HD
ENDBRANCH   6  13
TORSDOF 2
ENDMDL
MODEL 3
REMARK VINA RESULT:    -5.782      1.947      2.497
REMARK INTER + INTRA:          -6.120
REMARK INTER:                  -6.120
REMARK INTRA:                   0.000
REMARK UNBOUND:                 0.000
REMARK SMILES Cn1ncc2c(O)nc(S)nc21
REMARK SMILES IDX 1 1 2 2 3 3 4 4 5 5 6 6 8 7 9 8 11 9 12 10 10 11 7 13
REMARK H PARENT 10 12 7 14
ROOT
ATOM      1  C   UNL     1     -27.458   6.710   8.072  1.00  0.00    +0.176 C 
ATOM      2  N   UNL     1     -26.705   7.706   7.353  1.00  0.00    -0.250 N 
ATOM      3  N   UNL     1     -25.396   7.487   7.082  1.00  0.00    -0.179 NA
ATOM      4  C   UNL     1     -25.027   8.592   6.421  1.00  0.00    +0.151 A 
ATOM      5  C   UNL     1     -26.082   9.507   6.271  1.00  0.00    +0.101 A 
ATOM      6  C   UNL     1     -26.318  10.751   5.718  1.00  0.00    +0.226 A 
ATOM      7  N   UNL     1     -27.527  11.325   5.784  1.00  0.00    -0.187 NA
ATOM      8  C   UNL     1     -28.502  10.633   6.414  1.00  0.00    +0.189 A 
ATOM      9  N   UNL     1     -28.402   9.419   6.992  1.00  0.00    -0.203 NA
ATOM     10  C   UNL     1     -27.164   8.908   6.886  1.00  0.00    +0.166 A 
ENDROOT
BRANCH   8  11
ATOM     11  S   UNL     1     -30.087  11.422   6.483  1.00  0.00    -0.103 SA
ATOM     12  H   UNL     1     -29.576  12.655   6.400  1.00  0.00    +0.111 HD
ENDBRANCH   8  11
BRANCH   6  13
ATOM     13  O   UNL     1     -25.359  11.477   5.075  1.00  0.00    -0.493 OA
ATOM     14  H   UNL     1     -25.774  12.357   5.045  1.00  0.00    +0.295 HD
ENDBRANCH   6  13
TORSDOF 2
ENDMDL
MODEL 4
REMARK VINA RESULT:    -5.725      3.457      4.754
REMARK INTER + INTRA:          -6.060
REMARK INTER:                  -6.060
REMARK INTRA:                   0.000
REMARK UNBOUND:                 0.000
REMARK SMILES Cn1ncc2c(O)nc(S)nc21
REMARK SMILES IDX 1 1 2 2 3 3 4 4 5 5 6 6 8 7 9 8 11 9 12 10 10 11 7 13
REMARK H PARENT 10 12 7 14
ROOT
ATOM      1  C   UNL     1     -29.786   9.367   7.022  1.00  0.00    +0.176 C 
ATOM      2  N   UNL     1     -28.365   9.408   6.782  1.00  0.00    -0.250 N 
ATOM      3  N   UNL     1     -27.825  10.483   6.159  1.00  0.00    -0.179 NA
ATOM      4  C   UNL     1     -26.520  10.186   6.106  1.00  0.00    +0.151 A 
ATOM      5  C   UNL     1     -26.227   8.940   6.685  1.00  0.00    +0.101 A 
ATOM      6  C   UNL     1     -25.135   8.128   6.924  1.00  0.00    +0.226 A 
ATOM      7  N   UNL     1     -25.268   6.944   7.538  1.00  0.00    -0.187 NA
ATOM      8  C   UNL     1     -26.516   6.583   7.912  1.00  0.00    +0.189 A 
ATOM      9  N   UNL     1     -27.657   7.280   7.739  1.00  0.00    -0.203 NA
ATOM     10  C   UNL     1     -27.445   8.454   7.118  1.00  0.00    +0.166 A 
ENDROOT
BRANCH   8  11
ATOM     11  S   UNL     1     -26.655   5.013   8.721  1.00  0.00    -0.103 SA
ATOM     12  H   UNL     1     -26.162   4.333   7.679  1.00  0.00    +0.111 HD
ENDBRANCH   8  11
BRANCH   6  13
ATOM     13  O   UNL     1     -23.863   8.460   6.560  1.00  0.00    -0.493 OA
ATOM     14  H   UNL     1     -23.419   7.596   6.612  1.00  0.00    +0.295 HD
ENDBRANCH   6  13
TORSDOF 2
ENDMDL
MODEL 5
REMARK VINA RESULT:    -5.175      9.915     11.459
REMARK INTER + INTRA:          -5.477
REMARK INTER:                  -5.477
REMARK INTRA:                   0.000
REMARK UNBOUND:                 0.000
REMARK SMILES Cn1ncc2c(O)nc(S)nc21
REMARK SMILES IDX 1 1 2 2 3 3 4 4 5 5 6 6 8 7 9 8 11 9 12 10 10 11 7 13
REMARK H PARENT 10 12 7 14
ROOT
ATOM      1  C   UNL     1     -38.507   2.971  11.064  1.00  0.00    +0.176 C 
ATOM      2  N   UNL     1     -37.990   4.069  10.287  1.00  0.00    -0.250 N 
ATOM      3  N   UNL     1     -38.828   5.054   9.884  1.00  0.00    -0.179 NA
ATOM      4  C   UNL     1     -38.026   5.884   9.204  1.00  0.00    +0.151 A 
ATOM      5  C   UNL     1     -36.694   5.439   9.170  1.00  0.00    +0.101 A 
ATOM      6  C   UNL     1     -35.472   5.830   8.659  1.00  0.00    +0.226 A 
ATOM      7  N   UNL     1     -34.368   5.095   8.850  1.00  0.00    -0.187 NA
ATOM      8  C   UNL     1     -34.505   3.957   9.566  1.00  0.00    +0.189 A 
ATOM      9  N   UNL     1     -35.633   3.466  10.117  1.00  0.00    -0.203 NA
ATOM     10  C   UNL     1     -36.696   4.255   9.883  1.00  0.00    +0.166 A 
ENDROOT
BRANCH   8  11
ATOM     11  S   UNL     1     -33.025   3.010   9.801  1.00  0.00    -0.103 SA
ATOM     12  H   UNL     1     -32.413   3.975  10.496  1.00  0.00    +0.111 HD
ENDBRANCH   8  11
BRANCH   6  13
ATOM     13  O   UNL     1     -35.297   6.971   7.933  1.00  0.00    -0.493 OA
ATOM     14  H   UNL     1     -35.121   6.608   7.047  1.00  0.00    +0.295 HD
ENDBRANCH   6  13
TORSDOF 2
ENDMDL
MODEL 6
REMARK VINA RESULT:    -5.155     10.232     11.627
REMARK INTER + INTRA:          -5.456
REMARK INTER:                  -5.456
REMARK INTRA:                   0.000
REMARK UNBOUND:                 0.000
REMARK SMILES Cn1ncc2c(O)nc(S)nc21
REMARK SMILES IDX 1 1 2 2 3 3 4 4 5 5 6 6 8 7 9 8 11 9 12 10 10 11 7 13
REMARK H PARENT 10 12 7 14
ROOT
ATOM      1  C   UNL     1     -37.273   6.665  10.667  1.00  0.00    +0.176 C 
ATOM      2  N   UNL     1     -36.564   5.915   9.662  1.00  0.00    -0.250 N 
ATOM      3  N   UNL     1     -35.909   6.573   8.676  1.00  0.00    -0.179 NA
ATOM      4  C   UNL     1     -35.380   5.585   7.943  1.00  0.00    +0.151 A 
ATOM      5  C   UNL     1     -35.691   4.312   8.448  1.00  0.00    +0.101 A 
ATOM      6  C   UNL     1     -35.455   2.983   8.156  1.00  0.00    +0.226 A 
ATOM      7  N   UNL     1     -35.952   2.001   8.921  1.00  0.00    -0.187 NA
ATOM      8  C   UNL     1     -36.693   2.372   9.990  1.00  0.00    +0.189 A 
ATOM      9  N   UNL     1     -36.996   3.625  10.382  1.00  0.00    -0.203 NA
ATOM     10  C   UNL     1     -36.464   4.554   9.568  1.00  0.00    +0.166 A 
ENDROOT
BRANCH   8  11
ATOM     11  S   UNL     1     -37.334   1.049  10.979  1.00  0.00    -0.103 SA
ATOM     12  H   UNL     1     -37.600   0.271   9.924  1.00  0.00    +0.111 HD
ENDBRANCH   8  11
BRANCH   6  13
ATOM     13  O   UNL     1     -34.713   2.574   7.087  1.00  0.00    -0.493 OA
ATOM     14  H   UNL     1     -35.115   3.091   6.368  1.00  0.00    +0.295 HD
ENDBRANCH   6  13
TORSDOF 2
ENDMDL
MODEL 7
REMARK VINA RESULT:    -4.979      2.931      4.319
REMARK INTER + INTRA:          -5.270
REMARK INTER:                  -5.270
REMARK INTRA:                   0.000
REMARK UNBOUND:                 0.000
REMARK SMILES Cn1ncc2c(O)nc(S)nc21
REMARK SMILES IDX 1 1 2 2 3 3 4 4 5 5 6 6 8 7 9 8 11 9 12 10 10 11 7 13
REMARK H PARENT 10 12 7 14
ROOT
ATOM      1  C   UNL     1     -31.500   6.844   7.999  1.00  0.00    +0.176 C 
ATOM      2  N   UNL     1     -31.221   8.199   7.594  1.00  0.00    -0.250 N 
ATOM      3  N   UNL     1     -32.229   9.102   7.545  1.00  0.00    -0.179 NA
ATOM      4  C   UNL     1     -31.620  10.224   7.140  1.00  0.00    +0.151 A 
ATOM      5  C   UNL     1     -30.243  10.044   6.931  1.00  0.00    +0.101 A 
ATOM      6  C   UNL     1     -29.140  10.776   6.536  1.00  0.00    +0.226 A 
ATOM      7  N   UNL     1     -27.925  10.217   6.455  1.00  0.00    -0.187 NA
ATOM      8  C   UNL     1     -27.828   8.908   6.779  1.00  0.00    +0.189 A 
ATOM      9  N   UNL     1     -28.821   8.087   7.177  1.00  0.00    -0.203 NA
ATOM     10  C   UNL     1     -30.007   8.717   7.233  1.00  0.00    +0.166 A 
ENDROOT
BRANCH   8  11
ATOM     11  S   UNL     1     -26.207   8.202   6.662  1.00  0.00    -0.103 SA
ATOM     12  H   UNL     1     -25.639   9.349   6.275  1.00  0.00    +0.111 HD
ENDBRANCH   8  11
BRANCH   6  13
ATOM     13  O   UNL     1     -29.200  12.097   6.202  1.00  0.00    -0.493 OA
ATOM     14  H   UNL     1     -29.875  12.085   5.501  1.00  0.00    +0.295 HD
ENDBRANCH   6  13
TORSDOF 2
ENDMDL
MODEL 8
REMARK VINA RESULT:    -4.798     10.679     11.858
REMARK INTER + INTRA:          -5.078
REMARK INTER:                  -5.078
REMARK INTRA:                   0.000
REMARK UNBOUND:                 0.000
REMARK SMILES Cn1ncc2c(O)nc(S)nc21
REMARK SMILES IDX 1 1 2 2 3 3 4 4 5 5 6 6 8 7 9 8 11 9 12 10 10 11 7 13
REMARK H PARENT 10 12 7 14
ROOT
ATOM      1  C   UNL     1     -34.360   2.961   8.507  1.00  0.00    +0.176 C 
ATOM      2  N   UNL     1     -35.282   4.037   8.770  1.00  0.00    -0.250 N 
ATOM      3  N   UNL     1     -34.996   5.285   8.329  1.00  0.00    -0.179 NA
ATOM      4  C   UNL     1     -36.045   6.008   8.743  1.00  0.00    +0.151 A 
ATOM      5  C   UNL     1     -36.990   5.237   9.440  1.00  0.00    +0.101 A 
ATOM      6  C   UNL     1     -38.206   5.394  10.076  1.00  0.00    +0.226 A 
ATOM      7  N   UNL     1     -38.829   4.359  10.656  1.00  0.00    -0.187 NA
ATOM      8  C   UNL     1     -38.214   3.157  10.589  1.00  0.00    +0.189 A 
ATOM      9  N   UNL     1     -37.034   2.871  10.003  1.00  0.00    -0.203 NA
ATOM     10  C   UNL     1     -36.470   3.957   9.445  1.00  0.00    +0.166 A 
ENDROOT
BRANCH   8  11
ATOM     11  S   UNL     1     -39.066   1.811  11.366  1.00  0.00    -0.103 SA
ATOM     12  H   UNL     1     -39.641   2.591  12.287  1.00  0.00    +0.111 HD
ENDBRANCH   8  11
BRANCH   6  13
ATOM     13  O   UNL     1     -38.854   6.591  10.161  1.00  0.00    -0.493 OA
ATOM     14  H   UNL     1     -38.277   7.159   9.621  1.00  0.00    +0.295 HD
ENDBRANCH   6  13
TORSDOF 2
ENDMDL
MODEL 9
REMARK VINA RESULT:    -4.729      9.094     10.234
REMARK INTER + INTRA:          -5.006
REMARK INTER:                  -5.006
REMARK INTRA:                   0.000
REMARK UNBOUND:                 0.000
REMARK SMILES Cn1ncc2c(O)nc(S)nc21
REMARK SMILES IDX 1 1 2 2 3 3 4 4 5 5 6 6 8 7 9 8 11 9 12 10 10 11 7 13
REMARK H PARENT 10 12 7 14
ROOT
ATOM      1  C   UNL     1     -31.635   5.850   8.963  1.00  0.00    +0.176 C 
ATOM      2  N   UNL     1     -32.916   5.390   8.488  1.00  0.00    -0.250 N 
ATOM      3  N   UNL     1     -33.675   6.206   7.717  1.00  0.00    -0.179 NA
ATOM      4  C   UNL     1     -34.766   5.470   7.468  1.00  0.00    +0.151 A 
ATOM      5  C   UNL     1     -34.710   4.202   8.071  1.00  0.00    +0.101 A 
ATOM      6  C   UNL     1     -35.478   3.059   8.178  1.00  0.00    +0.226 A 
ATOM      7  N   UNL     1     -35.057   1.999   8.881  1.00  0.00    -0.187 NA
ATOM      8  C   UNL     1     -33.849   2.100   9.479  1.00  0.00    +0.189 A 
ATOM      9  N   UNL     1     -33.006   3.152   9.452  1.00  0.00    -0.203 NA
ATOM     10  C   UNL     1     -33.496   4.175   8.729  1.00  0.00    +0.166 A 
ENDROOT
BRANCH   8  11
ATOM     11  S   UNL     1     -33.323   0.680  10.400  1.00  0.00    -0.103 SA
ATOM     12  H   UNL     1     -34.572   0.268  10.647  1.00  0.00    +0.111 HD
ENDBRANCH   8  11
BRANCH   6  13
ATOM     13  O   UNL     1     -36.701   2.923   7.589  1.00  0.00    -0.493 OA
ATOM     14  H   UNL     1     -36.756   3.747   7.073  1.00  0.00    +0.295 HD
ENDBRANCH   6  13
TORSDOF 2
ENDMDL
