REMARK SMILES Cc1nc(S)c2cnn(-c3ccc([N+](=O)[O-])cc3)c2n1
REMARK SMILES IDX 1 1 2 2 3 3 4 4 6 5 7 6 8 7 9 8 19 9 20 10 5 11 10 13 11 14
REMARK SMILES IDX 18 15 12 16 17 17 13 18 14 19 15 20 16 21
REMARK H PARENT 5 12
ROOT
ATOM      1  C   UNL     1      -3.439   0.277   2.361  1.00  0.00    +0.090 C 
ATOM      2  C   UNL     1      -2.930  -0.232   1.046  1.00  0.00    +0.129 A 
ATOM      3  N   UNL     1      -3.829  -0.820   0.235  1.00  0.00    -0.226 NA
ATOM      4  C   UNL     1      -3.420  -1.270  -0.968  1.00  0.00    +0.108 A 
ATOM      5  C   UNL     1      -2.092  -1.106  -1.350  1.00  0.00    +0.071 A 
ATOM      6  C   UNL     1      -1.271  -1.388  -2.452  1.00  0.00    +0.149 A 
ATOM      7  N   UNL     1      -0.011  -0.994  -2.277  1.00  0.00    -0.174 NA
ATOM      8  N   UNL     1       0.007  -0.427  -1.032  1.00  0.00    -0.215 N 
ATOM      9  C   UNL     1      -1.255  -0.480  -0.439  1.00  0.00    +0.167 A 
ATOM     10  N   UNL     1      -1.631  -0.023   0.773  1.00  0.00    -0.213 NA
ENDROOT
BRANCH   4  11
ATOM     11  S   UNL     1      -4.599  -2.048  -2.022  1.00  0.00    -0.123 SA
ATOM     12  H   UNL     1      -3.735  -2.717  -2.795  1.00  0.00    +0.110 HD
ENDBRANCH   4  11
BRANCH   8  13
ATOM     13  C   UNL     1       1.231   0.113  -0.524  1.00  0.00    +0.068 A 
ATOM     14  C   UNL     1       2.390   0.048  -1.323  1.00  0.00    +0.035 A 
ATOM     15  C   UNL     1       1.313   0.705   0.744  1.00  0.00    +0.035 A 
ATOM     16  C   UNL     1       3.607   0.564  -0.865  1.00  0.00    +0.088 A 
ATOM     17  C   UNL     1       2.529   1.224   1.209  1.00  0.00    +0.088 A 
ATOM     18  C   UNL     1       3.672   1.151   0.403  1.00  0.00    +0.269 A 
BRANCH  18  19
ATOM     19  N   UNL     1       4.945   1.695   0.891  1.00  0.00    +0.062 N 
ATOM     20  O   UNL     1       4.958   2.206   2.020  1.00  0.00    -0.258 OA
ATOM     21  O   UNL     1       5.932   1.610   0.146  1.00  0.00    -0.258 OA
ENDBRANCH  18  19
ENDBRANCH   8  13
TORSDOF 3
