REMARK SMILES Oc1ccc(N=Cc2ccccc2)cc1
REMARK SMILES IDX 2 1 3 2 4 3 5 4 14 5 15 6 1 7 6 9 7 10 8 11 9 12 13 13 10 14
REMARK SMILES IDX 12 15 11 16
REMARK H PARENT 1 8
ROOT
ATOM      1  C   UNL     1       4.289  -0.065   0.381  1.00  0.00    +0.115 A 
ATOM      2  C   UNL     1       3.566   0.808   1.188  1.00  0.00    +0.048 A 
ATOM      3  C   UNL     1       2.211   1.020   0.922  1.00  0.00    +0.032 A 
ATOM      4  C   UNL     1       1.582   0.357  -0.136  1.00  0.00    +0.063 A 
ATOM      5  C   UNL     1       2.328  -0.503  -0.946  1.00  0.00    +0.032 A 
ATOM      6  C   UNL     1       3.682  -0.720  -0.685  1.00  0.00    +0.048 A 
ENDROOT
BRANCH   1   7
ATOM      7  O   UNL     1       5.613  -0.303   0.601  1.00  0.00    -0.508 OA
ATOM      8  H   UNL     1       5.905   0.242   1.350  1.00  0.00    +0.293 HD
ENDBRANCH   1   7
BRANCH   4   9
ATOM      9  N   UNL     1       0.226   0.588  -0.401  1.00  0.00    -0.256 NA
ATOM     10  C   UNL     1      -0.603  -0.270   0.107  1.00  0.00    +0.119 C 
BRANCH  10  11
ATOM     11  C   UNL     1      -2.061  -0.160  -0.087  1.00  0.00    -0.007 A 
ATOM     12  C   UNL     1      -2.894  -1.121   0.494  1.00  0.00    +0.010 A 
ATOM     13  C   UNL     1      -2.607   0.885  -0.838  1.00  0.00    +0.010 A 
ATOM     14  C   UNL     1      -4.276  -1.033   0.321  1.00  0.00    +0.001 A 
ATOM     15  C   UNL     1      -3.990   0.968  -1.008  1.00  0.00    +0.001 A 
ATOM     16  C   UNL     1      -4.822   0.010  -0.428  1.00  0.00    +0.000 A 
ENDBRANCH  10  11
ENDBRANCH   4   9
TORSDOF 3
