MODEL 1
REMARK VINA RESULT:    -6.895      0.000      0.000
REMARK INTER + INTRA:          -8.735
REMARK INTER:                  -8.507
REMARK INTRA:                  -0.227
REMARK UNBOUND:                -0.227
REMARK SMILES O=[N+]([O-])c1ccc(OC[C@@H]2CO2)cc1
REMARK SMILES IDX 4 1 5 2 6 3 7 4 13 5 14 6 2 7 1 8 3 9 8 10 9 11 10 12 11 13
REMARK SMILES IDX 12 14
REMARK H PARENT
ROOT
ATOM      1  C   UNL     1     -26.172   7.991   6.642  1.00  0.00    +0.269 A 
ATOM      2  C   UNL     1     -27.431   7.936   7.253  1.00  0.00    +0.089 A 
ATOM      3  C   UNL     1     -27.736   6.885   8.125  1.00  0.00    +0.053 A 
ATOM      4  C   UNL     1     -26.789   5.891   8.386  1.00  0.00    +0.119 A 
ATOM      5  C   UNL     1     -25.535   5.955   7.770  1.00  0.00    +0.053 A 
ATOM      6  C   UNL     1     -25.217   7.000   6.898  1.00  0.00    +0.089 A 
ENDROOT
BRANCH   1   7
ATOM      7  N   UNL     1     -25.851   9.094   5.727  1.00  0.00    +0.062 N 
ATOM      8  O   UNL     1     -24.997   9.914   6.092  1.00  0.00    -0.258 OA
ATOM      9  O   UNL     1     -26.452   9.139   4.645  1.00  0.00    -0.258 OA
ENDBRANCH   1   7
BRANCH   4  10
ATOM     10  O   UNL     1     -26.960   4.815   9.213  1.00  0.00    -0.491 OA
BRANCH  10  11
ATOM     11  C   UNL     1     -25.800   4.047   9.533  1.00  0.00    +0.264 C 
BRANCH  11  12
ATOM     12  C   UNL     1     -26.242   2.657   9.852  1.00  0.00    +0.181 C 
ATOM     13  C   UNL     1     -25.290   1.494   9.774  1.00  0.00    +0.196 C 
ATOM     14  O   UNL     1     -26.247   1.757   8.737  1.00  0.00    -0.369 OA
ENDBRANCH  11  12
ENDBRANCH  10  11
ENDBRANCH   4  10
TORSDOF 4
ENDMDL
MODEL 2
REMARK VINA RESULT:    -6.518      2.816      6.942
REMARK INTER + INTRA:          -8.270
REMARK INTER:                  -8.068
REMARK INTRA:                  -0.202
REMARK UNBOUND:                -0.227
REMARK SMILES O=[N+]([O-])c1ccc(OC[C@@H]2CO2)cc1
REMARK SMILES IDX 4 1 5 2 6 3 7 4 13 5 14 6 2 7 1 8 3 9 8 10 9 11 10 12 11 13
REMARK SMILES IDX 12 14
REMARK H PARENT
ROOT
ATOM      1  C   UNL     1     -26.295   6.858   7.550  1.00  0.00    +0.269 A 
ATOM      2  C   UNL     1     -24.986   7.129   7.130  1.00  0.00    +0.089 A 
ATOM      3  C   UNL     1     -24.688   8.359   6.533  1.00  0.00    +0.053 A 
ATOM      4  C   UNL     1     -25.691   9.315   6.354  1.00  0.00    +0.119 A 
ATOM      5  C   UNL     1     -26.995   9.034   6.776  1.00  0.00    +0.053 A 
ATOM      6  C   UNL     1     -27.306   7.809   7.375  1.00  0.00    +0.089 A 
ENDROOT
BRANCH   1   7
ATOM      7  N   UNL     1     -26.609   5.568   8.177  1.00  0.00    +0.062 N 
ATOM      8  O   UNL     1     -25.733   4.691   8.159  1.00  0.00    -0.258 OA
ATOM      9  O   UNL     1     -27.730   5.431   8.686  1.00  0.00    -0.258 OA
ENDBRANCH   1   7
BRANCH   4  10
ATOM     10  O   UNL     1     -25.533  10.549   5.787  1.00  0.00    -0.491 OA
BRANCH  10  11
ATOM     11  C   UNL     1     -26.568  11.005   4.914  1.00  0.00    +0.264 C 
BRANCH  11  12
ATOM     12  C   UNL     1     -27.064  12.314   5.433  1.00  0.00    +0.181 C 
ATOM     13  C   UNL     1     -28.534  12.636   5.469  1.00  0.00    +0.196 C 
ATOM     14  O   UNL     1     -27.670  13.159   4.448  1.00  0.00    -0.369 OA
ENDBRANCH  11  12
ENDBRANCH  10  11
ENDBRANCH   4  10
TORSDOF 4
ENDMDL
MODEL 3
REMARK VINA RESULT:    -6.443      4.235      6.201
REMARK INTER + INTRA:          -8.177
REMARK INTER:                  -7.894
REMARK INTRA:                  -0.284
REMARK UNBOUND:                -0.227
REMARK SMILES O=[N+]([O-])c1ccc(OC[C@@H]2CO2)cc1
REMARK SMILES IDX 4 1 5 2 6 3 7 4 13 5 14 6 2 7 1 8 3 9 8 10 9 11 10 12 11 13
REMARK SMILES IDX 12 14
REMARK H PARENT
ROOT
ATOM      1  C   UNL     1     -30.774   9.982   7.242  1.00  0.00    +0.269 A 
ATOM      2  C   UNL     1     -30.360  11.233   6.767  1.00  0.00    +0.089 A 
ATOM      3  C   UNL     1     -29.050  11.401   6.303  1.00  0.00    +0.053 A 
ATOM      4  C   UNL     1     -28.157  10.327   6.314  1.00  0.00    +0.119 A 
ATOM      5  C   UNL     1     -28.582   9.082   6.791  1.00  0.00    +0.053 A 
ATOM      6  C   UNL     1     -29.887   8.900   7.256  1.00  0.00    +0.089 A 
ENDROOT
BRANCH   1   7
ATOM      7  N   UNL     1     -32.148   9.805   7.730  1.00  0.00    +0.062 N 
ATOM      8  O   UNL     1     -32.758   8.786   7.374  1.00  0.00    -0.258 OA
ATOM      9  O   UNL     1     -32.617  10.682   8.467  1.00  0.00    -0.258 OA
ENDBRANCH   1   7
BRANCH   4  10
ATOM     10  O   UNL     1     -26.857  10.357   5.891  1.00  0.00    -0.491 OA
BRANCH  10  11
ATOM     11  C   UNL     1     -26.284   9.126   5.450  1.00  0.00    +0.264 C 
BRANCH  11  12
ATOM     12  C   UNL     1     -25.019   8.907   6.213  1.00  0.00    +0.181 C 
ATOM     13  C   UNL     1     -24.683   7.564   6.802  1.00  0.00    +0.196 C 
ATOM     14  O   UNL     1     -25.200   8.634   7.608  1.00  0.00    -0.369 OA
ENDBRANCH  11  12
ENDBRANCH  10  11
ENDBRANCH   4  10
TORSDOF 4
ENDMDL
MODEL 4
REMARK VINA RESULT:    -5.983      2.793      6.664
REMARK INTER + INTRA:          -7.609
REMARK INTER:                  -7.408
REMARK INTRA:                  -0.201
REMARK UNBOUND:                -0.227
REMARK SMILES O=[N+]([O-])c1ccc(OC[C@@H]2CO2)cc1
REMARK SMILES IDX 4 1 5 2 6 3 7 4 13 5 14 6 2 7 1 8 3 9 8 10 9 11 10 12 11 13
REMARK SMILES IDX 12 14
REMARK H PARENT
ROOT
ATOM      1  C   UNL     1     -26.587   5.918   8.186  1.00  0.00    +0.269 A 
ATOM      2  C   UNL     1     -27.789   6.622   8.339  1.00  0.00    +0.089 A 
ATOM      3  C   UNL     1     -27.997   7.806   7.623  1.00  0.00    +0.053 A 
ATOM      4  C   UNL     1     -27.010   8.288   6.758  1.00  0.00    +0.119 A 
ATOM      5  C   UNL     1     -25.814   7.577   6.613  1.00  0.00    +0.053 A 
ATOM      6  C   UNL     1     -25.594   6.392   7.322  1.00  0.00    +0.089 A 
ENDROOT
BRANCH   1   7
ATOM      7  N   UNL     1     -26.368   4.675   8.936  1.00  0.00    +0.062 N 
ATOM      8  O   UNL     1     -27.308   4.240   9.617  1.00  0.00    -0.258 OA
ATOM      9  O   UNL     1     -25.257   4.134   8.845  1.00  0.00    -0.258 OA
ENDBRANCH   1   7
BRANCH   4  10
ATOM     10  O   UNL     1     -27.087   9.426   6.004  1.00  0.00    -0.491 OA
BRANCH  10  11
ATOM     11  C   UNL     1     -27.849  10.511   6.534  1.00  0.00    +0.264 C 
BRANCH  11  12
ATOM     12  C   UNL     1     -28.221  11.409   5.401  1.00  0.00    +0.181 C 
ATOM     13  C   UNL     1     -27.838  12.865   5.397  1.00  0.00    +0.196 C 
ATOM     14  O   UNL     1     -29.167  12.434   5.732  1.00  0.00    -0.369 OA
ENDBRANCH  11  12
ENDBRANCH  10  11
ENDBRANCH   4  10
TORSDOF 4
ENDMDL
MODEL 5
REMARK VINA RESULT:    -5.944      2.879      6.390
REMARK INTER + INTRA:          -7.561
REMARK INTER:                  -7.254
REMARK INTRA:                  -0.307
REMARK UNBOUND:                -0.227
REMARK SMILES O=[N+]([O-])c1ccc(OC[C@@H]2CO2)cc1
REMARK SMILES IDX 4 1 5 2 6 3 7 4 13 5 14 6 2 7 1 8 3 9 8 10 9 11 10 12 11 13
REMARK SMILES IDX 12 14
REMARK H PARENT
ROOT
ATOM      1  C   UNL     1     -26.828   6.247   8.053  1.00  0.00    +0.269 A 
ATOM      2  C   UNL     1     -26.022   6.856   7.083  1.00  0.00    +0.089 A 
ATOM      3  C   UNL     1     -26.472   8.007   6.428  1.00  0.00    +0.053 A 
ATOM      4  C   UNL     1     -27.723   8.549   6.737  1.00  0.00    +0.119 A 
ATOM      5  C   UNL     1     -28.521   7.932   7.707  1.00  0.00    +0.053 A 
ATOM      6  C   UNL     1     -28.082   6.782   8.370  1.00  0.00    +0.089 A 
ENDROOT
BRANCH   1   7
ATOM      7  N   UNL     1     -26.356   5.039   8.742  1.00  0.00    +0.062 N 
ATOM      8  O   UNL     1     -25.242   4.595   8.429  1.00  0.00    -0.258 OA
ATOM      9  O   UNL     1     -27.098   4.535   9.596  1.00  0.00    -0.258 OA
ENDBRANCH   1   7
BRANCH   4  10
ATOM     10  O   UNL     1     -28.279   9.663   6.173  1.00  0.00    -0.491 OA
BRANCH  10  11
ATOM     11  C   UNL     1     -28.764  10.672   7.059  1.00  0.00    +0.264 C 
BRANCH  11  12
ATOM     12  C   UNL     1     -30.129  11.069   6.602  1.00  0.00    +0.181 C 
ATOM     13  C   UNL     1     -31.314  11.007   7.527  1.00  0.00    +0.196 C 
ATOM     14  O   UNL     1     -31.076   9.995   6.536  1.00  0.00    -0.369 OA
ENDBRANCH  11  12
ENDBRANCH  10  11
ENDBRANCH   4  10
TORSDOF 4
ENDMDL
MODEL 6
REMARK VINA RESULT:    -5.917      1.576      2.234
REMARK INTER + INTRA:          -7.528
REMARK INTER:                  -7.292
REMARK INTRA:                  -0.236
REMARK UNBOUND:                -0.227
REMARK SMILES O=[N+]([O-])c1ccc(OC[C@@H]2CO2)cc1
REMARK SMILES IDX 4 1 5 2 6 3 7 4 13 5 14 6 2 7 1 8 3 9 8 10 9 11 10 12 11 13
REMARK SMILES IDX 12 14
REMARK H PARENT
ROOT
ATOM      1  C   UNL     1     -26.871   8.328   6.868  1.00  0.00    +0.269 A 
ATOM      2  C   UNL     1     -25.542   8.004   6.566  1.00  0.00    +0.089 A 
ATOM      3  C   UNL     1     -24.990   6.812   7.048  1.00  0.00    +0.053 A 
ATOM      4  C   UNL     1     -25.760   5.945   7.829  1.00  0.00    +0.119 A 
ATOM      5  C   UNL     1     -27.087   6.279   8.125  1.00  0.00    +0.053 A 
ATOM      6  C   UNL     1     -27.650   7.467   7.649  1.00  0.00    +0.089 A 
ENDROOT
BRANCH   1   7
ATOM      7  N   UNL     1     -27.451   9.579   6.363  1.00  0.00    +0.062 N 
ATOM      8  O   UNL     1     -27.147   9.932   5.215  1.00  0.00    -0.258 OA
ATOM      9  O   UNL     1     -28.210  10.207   7.114  1.00  0.00    -0.258 OA
ENDBRANCH   1   7
BRANCH   4  10
ATOM     10  O   UNL     1     -25.344   4.756   8.359  1.00  0.00    -0.491 OA
BRANCH  10  11
ATOM     11  C   UNL     1     -26.102   4.223   9.446  1.00  0.00    +0.264 C 
BRANCH  11  12
ATOM     12  C   UNL     1     -25.197   4.109  10.627  1.00  0.00    +0.181 C 
ATOM     13  C   UNL     1     -25.111   2.837  11.428  1.00  0.00    +0.196 C 
ATOM     14  O   UNL     1     -25.866   3.970  11.886  1.00  0.00    -0.369 OA
ENDBRANCH  11  12
ENDBRANCH  10  11
ENDBRANCH   4  10
TORSDOF 4
ENDMDL
MODEL 7
REMARK VINA RESULT:    -5.748      2.664      4.040
REMARK INTER + INTRA:          -7.320
REMARK INTER:                  -7.088
REMARK INTRA:                  -0.232
REMARK UNBOUND:                -0.227
REMARK SMILES O=[N+]([O-])c1ccc(OC[C@@H]2CO2)cc1
REMARK SMILES IDX 4 1 5 2 6 3 7 4 13 5 14 6 2 7 1 8 3 9 8 10 9 11 10 12 11 13
REMARK SMILES IDX 12 14
REMARK H PARENT
ROOT
ATOM      1  C   UNL     1     -26.379   5.061   8.831  1.00  0.00    +0.269 A 
ATOM      2  C   UNL     1     -25.164   5.019   9.526  1.00  0.00    +0.089 A 
ATOM      3  C   UNL     1     -24.827   3.882  10.269  1.00  0.00    +0.053 A 
ATOM      4  C   UNL     1     -25.699   2.791  10.321  1.00  0.00    +0.119 A 
ATOM      5  C   UNL     1     -26.911   2.845   9.623  1.00  0.00    +0.053 A 
ATOM      6  C   UNL     1     -27.259   3.974   8.876  1.00  0.00    +0.089 A 
ENDROOT
BRANCH   1   7
ATOM      7  N   UNL     1     -26.733   6.254   8.051  1.00  0.00    +0.062 N 
ATOM      8  O   UNL     1     -27.640   6.978   8.486  1.00  0.00    -0.258 OA
ATOM      9  O   UNL     1     -26.105   6.466   7.004  1.00  0.00    -0.258 OA
ENDBRANCH   1   7
BRANCH   4  10
ATOM     10  O   UNL     1     -25.492   1.627  11.006  1.00  0.00    -0.491 OA
BRANCH  10  11
ATOM     11  C   UNL     1     -24.587   0.683  10.434  1.00  0.00    +0.264 C 
BRANCH  11  12
ATOM     12  C   UNL     1     -23.322   0.719  11.226  1.00  0.00    +0.181 C 
ATOM     13  C   UNL     1     -21.996   1.004  10.573  1.00  0.00    +0.196 C 
ATOM     14  O   UNL     1     -22.394  -0.330  10.925  1.00  0.00    -0.369 OA
ENDBRANCH  11  12
ENDBRANCH  10  11
ENDBRANCH   4  10
TORSDOF 4
ENDMDL
MODEL 8
REMARK VINA RESULT:    -5.679      3.618      6.976
REMARK INTER + INTRA:          -7.234
REMARK INTER:                  -6.962
REMARK INTRA:                  -0.271
REMARK UNBOUND:                -0.227
REMARK SMILES O=[N+]([O-])c1ccc(OC[C@@H]2CO2)cc1
REMARK SMILES IDX 4 1 5 2 6 3 7 4 13 5 14 6 2 7 1 8 3 9 8 10 9 11 10 12 11 13
REMARK SMILES IDX 12 14
REMARK H PARENT
ROOT
ATOM      1  C   UNL     1     -24.228   1.032  10.401  1.00  0.00    +0.269 A 
ATOM      2  C   UNL     1     -25.403   1.018   9.640  1.00  0.00    +0.089 A 
ATOM      3  C   UNL     1     -26.160   2.187   9.506  1.00  0.00    +0.053 A 
ATOM      4  C   UNL     1     -25.747   3.367  10.131  1.00  0.00    +0.119 A 
ATOM      5  C   UNL     1     -24.571   3.370  10.890  1.00  0.00    +0.053 A 
ATOM      6  C   UNL     1     -23.806   2.208  11.031  1.00  0.00    +0.089 A 
ENDROOT
BRANCH   1   7
ATOM      7  N   UNL     1     -23.433  -0.195  10.542  1.00  0.00    +0.062 N 
ATOM      8  O   UNL     1     -22.305  -0.095  11.045  1.00  0.00    -0.258 OA
ATOM      9  O   UNL     1     -23.937  -1.257  10.150  1.00  0.00    -0.258 OA
ENDBRANCH   1   7
BRANCH   4  10
ATOM     10  O   UNL     1     -26.391   4.572  10.081  1.00  0.00    -0.491 OA
BRANCH  10  11
ATOM     11  C   UNL     1     -26.680   5.106   8.789  1.00  0.00    +0.264 C 
BRANCH  11  12
ATOM     12  C   UNL     1     -25.445   5.772   8.279  1.00  0.00    +0.181 C 
ATOM     13  C   UNL     1     -25.498   6.760   7.146  1.00  0.00    +0.196 C 
ATOM     14  O   UNL     1     -25.071   5.403   6.946  1.00  0.00    -0.369 OA
ENDBRANCH  11  12
ENDBRANCH  10  11
ENDBRANCH   4  10
TORSDOF 4
ENDMDL
MODEL 9
REMARK VINA RESULT:    -5.664      2.790      3.715
REMARK INTER + INTRA:          -7.216
REMARK INTER:                  -6.926
REMARK INTRA:                  -0.290
REMARK UNBOUND:                -0.227
REMARK SMILES O=[N+]([O-])c1ccc(OC[C@@H]2CO2)cc1
REMARK SMILES IDX 4 1 5 2 6 3 7 4 13 5 14 6 2 7 1 8 3 9 8 10 9 11 10 12 11 13
REMARK SMILES IDX 12 14
REMARK H PARENT
ROOT
ATOM      1  C   UNL     1     -26.131   4.921   8.835  1.00  0.00    +0.269 A 
ATOM      2  C   UNL     1     -27.233   4.057   8.857  1.00  0.00    +0.089 A 
ATOM      3  C   UNL     1     -27.247   2.971   9.740  1.00  0.00    +0.053 A 
ATOM      4  C   UNL     1     -26.166   2.747  10.597  1.00  0.00    +0.119 A 
ATOM      5  C   UNL     1     -25.070   3.617  10.566  1.00  0.00    +0.053 A 
ATOM      6  C   UNL     1     -25.045   4.706   9.690  1.00  0.00    +0.089 A 
ENDROOT
BRANCH   1   7
ATOM      7  N   UNL     1     -26.116   6.061   7.909  1.00  0.00    +0.062 N 
ATOM      8  O   UNL     1     -25.296   6.036   6.980  1.00  0.00    -0.258 OA
ATOM      9  O   UNL     1     -26.922   6.980   8.111  1.00  0.00    -0.258 OA
ENDBRANCH   1   7
BRANCH   4  10
ATOM     10  O   UNL     1     -26.055   1.729  11.503  1.00  0.00    -0.491 OA
BRANCH  10  11
ATOM     11  C   UNL     1     -25.199   0.639  11.159  1.00  0.00    +0.264 C 
BRANCH  11  12
ATOM     12  C   UNL     1     -26.045  -0.443  10.573  1.00  0.00    +0.181 C 
ATOM     13  C   UNL     1     -25.445  -1.537   9.730  1.00  0.00    +0.196 C 
ATOM     14  O   UNL     1     -26.139  -0.424   9.143  1.00  0.00    -0.369 OA
ENDBRANCH  11  12
ENDBRANCH  10  11
ENDBRANCH   4  10
TORSDOF 4
ENDMDL
