REMARK SMILES CC1=C[C@H](C)[C@@H](C(=O)O)[C@H](C(=O)O)C1
REMARK SMILES IDX 5 1 4 2 3 3 2 4 1 5 14 6 10 7 6 8 7 9 8 10 9 11 11 13 12 14
REMARK SMILES IDX 13 15
REMARK H PARENT 9 12 13 16
ROOT
ATOM      1  C   UNL     1      -1.107  -1.341  -1.808  1.00  0.00    +0.013 C 
ATOM      2  C   UNL     1      -0.929  -1.062  -0.311  1.00  0.00    +0.023 C 
ATOM      3  C   UNL     1       0.458  -1.478   0.102  1.00  0.00    -0.024 C 
ATOM      4  C   UNL     1       1.381  -0.653   0.620  1.00  0.00    -0.076 C 
ATOM      5  C   UNL     1       2.731  -1.149   1.057  1.00  0.00    +0.039 C 
ATOM      6  C   UNL     1       1.127   0.817   0.819  1.00  0.00    +0.046 C 
ATOM      7  C   UNL     1      -0.089   1.373   0.059  1.00  0.00    +0.118 C 
ATOM      8  C   UNL     1      -1.288   0.398   0.054  1.00  0.00    +0.120 C 
ENDROOT
BRANCH   8   9
ATOM      9  C   UNL     1      -1.995   0.446   1.394  1.00  0.00    +0.307 C 
ATOM     10  O   UNL     1      -1.603   0.970   2.423  1.00  0.00    -0.252 OA
BRANCH   9  11
ATOM     11  O   UNL     1      -3.208  -0.144   1.360  1.00  0.00    -0.481 OA
ATOM     12  H   UNL     1      -3.555  -0.028   2.270  1.00  0.00    +0.296 HD
ENDBRANCH   9  11
ENDBRANCH   8   9
BRANCH   7  13
ATOM     13  C   UNL     1       0.241   1.828  -1.349  1.00  0.00    +0.307 C 
ATOM     14  O   UNL     1      -0.484   1.749  -2.328  1.00  0.00    -0.252 OA
BRANCH  13  15
ATOM     15  O   UNL     1       1.419   2.470  -1.454  1.00  0.00    -0.481 OA
ATOM     16  H   UNL     1       1.462   2.734  -2.397  1.00  0.00    +0.296 HD
ENDBRANCH  13  15
ENDBRANCH   7  13
TORSDOF 4
