REMARK SMILES O=S(=O)(O)CCS(=O)(=O)O
REMARK SMILES IDX 5 1 2 2 1 3 3 4 4 5 6 7 7 8 8 9 9 10 10 11
REMARK H PARENT 4 6 10 12
ROOT
ATOM      1  C   UNL     1      -0.624  -0.750  -0.849  1.00  0.00    +0.186 C 
ENDROOT
BRANCH   1   2
ATOM      2  S   UNL     1      -1.909  -0.146   0.222  1.00  0.00    +0.265 S 
ATOM      3  O   UNL     1      -1.704  -0.659   1.554  1.00  0.00    -0.200 OA
ATOM      4  O   UNL     1      -3.177  -0.256  -0.462  1.00  0.00    -0.200 OA
BRANCH   2   5
ATOM      5  O   UNL     1      -1.536   1.418   0.196  1.00  0.00    -0.286 OA
ATOM      6  H   UNL     1      -2.340   1.934  -0.030  1.00  0.00    +0.234 HD
ENDBRANCH   2   5
ENDBRANCH   1   2
BRANCH   1   7
ATOM      7  C   UNL     1       0.715  -0.884  -0.160  1.00  0.00    +0.186 C 
BRANCH   7   8
ATOM      8  S   UNL     1       1.431   0.696   0.250  1.00  0.00    +0.265 S 
ATOM      9  O   UNL     1       1.014   1.129   1.561  1.00  0.00    -0.200 OA
ATOM     10  O   UNL     1       1.408   1.550  -0.915  1.00  0.00    -0.200 OA
BRANCH   8  11
ATOM     11  O   UNL     1       2.950   0.188   0.447  1.00  0.00    -0.286 OA
ATOM     12  H   UNL     1       3.242   0.465   1.344  1.00  0.00    +0.234 HD
ENDBRANCH   8  11
ENDBRANCH   7   8
ENDBRANCH   1   7
TORSDOF 5
