MODEL 1
REMARK VINA RESULT:    -5.101      0.000      0.000
REMARK INTER + INTRA:          -7.495
REMARK INTER:                  -6.891
REMARK INTRA:                  -0.604
REMARK UNBOUND:                -0.604
REMARK SMILES CC(C)N(CC(=O)O)CC(=O)O
REMARK SMILES IDX 4 1 2 2 1 3 3 4 5 5 6 6 7 7 8 8 9 10 10 11 11 12 12 13
REMARK H PARENT 8 9 12 14
ROOT
ATOM      1  N   UNL     1     -24.519   2.417  10.653  1.00  0.00    -0.280 NA
ENDROOT
BRANCH   1   2
ATOM      2  C   UNL     1     -24.988   3.767  11.021  1.00  0.00    +0.051 C 
ATOM      3  C   UNL     1     -26.087   3.792  12.091  1.00  0.00    +0.024 C 
ATOM      4  C   UNL     1     -25.422   4.580   9.795  1.00  0.00    +0.024 C 
ENDBRANCH   1   2
BRANCH   1   5
ATOM      5  C   UNL     1     -25.403   1.305  11.072  1.00  0.00    +0.208 C 
BRANCH   5   6
ATOM      6  C   UNL     1     -26.155   0.720   9.879  1.00  0.00    +0.317 C 
ATOM      7  O   UNL     1     -27.135  -0.007   9.872  1.00  0.00    -0.251 OA
BRANCH   6   8
ATOM      8  O   UNL     1     -25.568   1.058   8.706  1.00  0.00    -0.480 OA
ATOM      9  H   UNL     1     -25.516   0.198   8.237  1.00  0.00    +0.296 HD
ENDBRANCH   6   8
ENDBRANCH   5   6
ENDBRANCH   1   5
BRANCH   1  10
ATOM     10  C   UNL     1     -23.103   2.187  11.007  1.00  0.00    +0.208 C 
BRANCH  10  11
ATOM     11  C   UNL     1     -22.494   1.004  10.257  1.00  0.00    +0.317 C 
ATOM     12  O   UNL     1     -21.923   0.026  10.713  1.00  0.00    -0.251 OA
BRANCH  11  13
ATOM     13  O   UNL     1     -22.584   1.158   8.916  1.00  0.00    -0.480 OA
ATOM     14  H   UNL     1     -21.682   1.449   8.660  1.00  0.00    +0.296 HD
ENDBRANCH  11  13
ENDBRANCH  10  11
ENDBRANCH   1  10
TORSDOF 7
ENDMDL
MODEL 2
REMARK VINA RESULT:    -5.079     10.154     11.319
REMARK INTER + INTRA:          -7.465
REMARK INTER:                  -6.930
REMARK INTRA:                  -0.536
REMARK UNBOUND:                -0.604
REMARK SMILES CC(C)N(CC(=O)O)CC(=O)O
REMARK SMILES IDX 4 1 2 2 1 3 3 4 5 5 6 6 7 7 8 8 9 10 10 11 11 12 12 13
REMARK H PARENT 8 9 12 14
ROOT
ATOM      1  N   UNL     1     -35.448   4.709   9.509  1.00  0.00    -0.280 NA
ENDROOT
BRANCH   1   2
ATOM      2  C   UNL     1     -35.603   4.902  10.963  1.00  0.00    +0.051 C 
ATOM      3  C   UNL     1     -36.559   6.035  11.359  1.00  0.00    +0.024 C 
ATOM      4  C   UNL     1     -34.253   5.075  11.670  1.00  0.00    +0.024 C 
ENDBRANCH   1   2
BRANCH   1   5
ATOM      5  C   UNL     1     -35.914   5.835   8.669  1.00  0.00    +0.208 C 
BRANCH   5   6
ATOM      6  C   UNL     1     -34.840   6.258   7.669  1.00  0.00    +0.317 C 
ATOM      7  O   UNL     1     -34.197   5.566   6.895  1.00  0.00    -0.251 OA
BRANCH   6   8
ATOM      8  O   UNL     1     -34.586   7.586   7.743  1.00  0.00    -0.480 OA
ATOM      9  H   UNL     1     -34.755   7.785   8.688  1.00  0.00    +0.296 HD
ENDBRANCH   6   8
ENDBRANCH   5   6
ENDBRANCH   1   5
BRANCH   1  10
ATOM     10  C   UNL     1     -35.958   3.402   9.047  1.00  0.00    +0.208 C 
BRANCH  10  11
ATOM     11  C   UNL     1     -34.867   2.530   8.429  1.00  0.00    +0.317 C 
ATOM     12  O   UNL     1     -34.038   1.834   8.994  1.00  0.00    -0.251 OA
BRANCH  11  13
ATOM     13  O   UNL     1     -34.838   2.639   7.081  1.00  0.00    -0.480 OA
ATOM     14  H   UNL     1     -34.154   1.988   6.815  1.00  0.00    +0.296 HD
ENDBRANCH  11  13
ENDBRANCH  10  11
ENDBRANCH   1  10
TORSDOF 7
ENDMDL
MODEL 3
REMARK VINA RESULT:    -4.924      2.012      3.747
REMARK INTER + INTRA:          -7.255
REMARK INTER:                  -6.873
REMARK INTRA:                  -0.382
REMARK UNBOUND:                -0.604
REMARK SMILES CC(C)N(CC(=O)O)CC(=O)O
REMARK SMILES IDX 4 1 2 2 1 3 3 4 5 5 6 6 7 7 8 8 9 10 10 11 11 12 12 13
REMARK H PARENT 8 9 12 14
ROOT
ATOM      1  N   UNL     1     -25.096   2.994  10.561  1.00  0.00    -0.280 NA
ENDROOT
BRANCH   1   2
ATOM      2  C   UNL     1     -26.155   2.749  11.558  1.00  0.00    +0.051 C 
ATOM      3  C   UNL     1     -27.542   2.475  10.963  1.00  0.00    +0.024 C 
ATOM      4  C   UNL     1     -26.237   3.872  12.600  1.00  0.00    +0.024 C 
ENDBRANCH   1   2
BRANCH   1   5
ATOM      5  C   UNL     1     -23.827   2.269  10.796  1.00  0.00    +0.208 C 
BRANCH   5   6
ATOM      6  C   UNL     1     -23.447   1.416   9.588  1.00  0.00    +0.317 C 
ATOM      7  O   UNL     1     -22.336   1.127   9.172  1.00  0.00    -0.251 OA
BRANCH   6   8
ATOM      8  O   UNL     1     -24.541   1.001   8.908  1.00  0.00    -0.480 OA
ATOM      9  H   UNL     1     -24.525   1.569   8.108  1.00  0.00    +0.296 HD
ENDBRANCH   6   8
ENDBRANCH   5   6
ENDBRANCH   1   5
BRANCH   1  10
ATOM     10  C   UNL     1     -24.891   4.431  10.283  1.00  0.00    +0.208 C 
BRANCH  10  11
ATOM     11  C   UNL     1     -25.601   4.891   9.012  1.00  0.00    +0.317 C 
ATOM     12  O   UNL     1     -25.212   4.824   7.857  1.00  0.00    -0.251 OA
BRANCH  11  13
ATOM     13  O   UNL     1     -26.781   5.494   9.284  1.00  0.00    -0.480 OA
ATOM     14  H   UNL     1     -27.390   5.113   8.616  1.00  0.00    +0.296 HD
ENDBRANCH  11  13
ENDBRANCH  10  11
ENDBRANCH   1  10
TORSDOF 7
ENDMDL
MODEL 4
REMARK VINA RESULT:    -4.785     10.567     12.074
REMARK INTER + INTRA:          -7.068
REMARK INTER:                  -6.461
REMARK INTRA:                  -0.606
REMARK UNBOUND:                -0.604
REMARK SMILES CC(C)N(CC(=O)O)CC(=O)O
REMARK SMILES IDX 4 1 2 2 1 3 3 4 5 5 6 6 7 7 8 8 9 10 10 11 11 12 12 13
REMARK H PARENT 8 9 12 14
ROOT
ATOM      1  N   UNL     1     -35.717   4.964   9.505  1.00  0.00    -0.280 NA
ENDROOT
BRANCH   1   2
ATOM      2  C   UNL     1     -35.056   4.121  10.520  1.00  0.00    +0.051 C 
ATOM      3  C   UNL     1     -34.178   4.890  11.516  1.00  0.00    +0.024 C 
ATOM      4  C   UNL     1     -34.259   2.973   9.887  1.00  0.00    +0.024 C 
ENDBRANCH   1   2
BRANCH   1   5
ATOM      5  C   UNL     1     -37.196   4.925   9.519  1.00  0.00    +0.208 C 
BRANCH   5   6
ATOM      6  C   UNL     1     -37.777   6.228  10.063  1.00  0.00    +0.317 C 
ATOM      7  O   UNL     1     -38.945   6.530  10.245  1.00  0.00    -0.251 OA
BRANCH   6   8
ATOM      8  O   UNL     1     -36.808   7.142  10.306  1.00  0.00    -0.480 OA
ATOM      9  H   UNL     1     -37.271   7.804  10.861  1.00  0.00    +0.296 HD
ENDBRANCH   6   8
ENDBRANCH   5   6
ENDBRANCH   1   5
BRANCH   1  10
ATOM     10  C   UNL     1     -35.151   4.780   8.153  1.00  0.00    +0.208 C 
BRANCH  10  11
ATOM     11  C   UNL     1     -34.341   5.987   7.685  1.00  0.00    +0.317 C 
ATOM     12  O   UNL     1     -33.195   6.017   7.263  1.00  0.00    -0.251 OA
BRANCH  11  13
ATOM     13  O   UNL     1     -35.023   7.144   7.844  1.00  0.00    -0.480 OA
ATOM     14  H   UNL     1     -34.420   7.817   7.461  1.00  0.00    +0.296 HD
ENDBRANCH  11  13
ENDBRANCH  10  11
ENDBRANCH   1  10
TORSDOF 7
ENDMDL
MODEL 5
REMARK VINA RESULT:    -4.731     10.271     11.812
REMARK INTER + INTRA:          -6.996
REMARK INTER:                  -6.421
REMARK INTRA:                  -0.574
REMARK UNBOUND:                -0.604
REMARK SMILES CC(C)N(CC(=O)O)CC(=O)O
REMARK SMILES IDX 4 1 2 2 1 3 3 4 5 5 6 6 7 7 8 8 9 10 10 11 11 12 12 13
REMARK H PARENT 8 9 12 14
ROOT
ATOM      1  N   UNL     1     -36.104   4.184   9.019  1.00  0.00    -0.280 NA
ENDROOT
BRANCH   1   2
ATOM      2  C   UNL     1     -37.553   4.088   9.284  1.00  0.00    +0.051 C 
ATOM      3  C   UNL     1     -38.300   5.427   9.249  1.00  0.00    +0.024 C 
ATOM      4  C   UNL     1     -37.851   3.347  10.594  1.00  0.00    +0.024 C 
ENDBRANCH   1   2
BRANCH   1   5
ATOM      5  C   UNL     1     -35.258   3.240   9.782  1.00  0.00    +0.208 C 
BRANCH   5   6
ATOM      6  C   UNL     1     -34.425   2.367   8.846  1.00  0.00    +0.317 C 
ATOM      7  O   UNL     1     -33.444   1.687   9.103  1.00  0.00    -0.251 OA
BRANCH   6   8
ATOM      8  O   UNL     1     -34.865   2.446   7.568  1.00  0.00    -0.480 OA
ATOM      9  H   UNL     1     -34.171   2.988   7.136  1.00  0.00    +0.296 HD
ENDBRANCH   6   8
ENDBRANCH   5   6
ENDBRANCH   1   5
BRANCH   1  10
ATOM     10  C   UNL     1     -35.604   5.574   9.073  1.00  0.00    +0.208 C 
BRANCH  10  11
ATOM     11  C   UNL     1     -34.952   6.016   7.765  1.00  0.00    +0.317 C 
ATOM     12  O   UNL     1     -34.516   5.322   6.860  1.00  0.00    -0.251 OA
BRANCH  11  13
ATOM     13  O   UNL     1     -34.822   7.360   7.696  1.00  0.00    -0.480 OA
ATOM     14  H   UNL     1     -35.291   7.591   6.865  1.00  0.00    +0.296 HD
ENDBRANCH  11  13
ENDBRANCH  10  11
ENDBRANCH   1  10
TORSDOF 7
ENDMDL
MODEL 6
REMARK VINA RESULT:    -4.615      2.078      3.991
REMARK INTER + INTRA:          -6.838
REMARK INTER:                  -6.305
REMARK INTRA:                  -0.533
REMARK UNBOUND:                -0.604
REMARK SMILES CC(C)N(CC(=O)O)CC(=O)O
REMARK SMILES IDX 4 1 2 2 1 3 3 4 5 5 6 6 7 7 8 8 9 10 10 11 11 12 12 13
REMARK H PARENT 8 9 12 14
ROOT
ATOM      1  N   UNL     1     -24.437   1.442  10.209  1.00  0.00    -0.280 NA
ENDROOT
BRANCH   1   2
ATOM      2  C   UNL     1     -23.193   0.682   9.979  1.00  0.00    +0.051 C 
ATOM      3  C   UNL     1     -23.262  -0.796  10.386  1.00  0.00    +0.024 C 
ATOM      4  C   UNL     1     -21.977   1.355  10.629  1.00  0.00    +0.024 C 
ENDBRANCH   1   2
BRANCH   1   5
ATOM      5  C   UNL     1     -24.283   2.679  11.007  1.00  0.00    +0.208 C 
BRANCH   5   6
ATOM      6  C   UNL     1     -25.274   3.751  10.557  1.00  0.00    +0.317 C 
ATOM      7  O   UNL     1     -26.096   4.361  11.220  1.00  0.00    -0.251 OA
BRANCH   6   8
ATOM      8  O   UNL     1     -25.205   3.963   9.221  1.00  0.00    -0.480 OA
ATOM      9  H   UNL     1     -24.438   3.413   8.956  1.00  0.00    +0.296 HD
ENDBRANCH   6   8
ENDBRANCH   5   6
ENDBRANCH   1   5
BRANCH   1  10
ATOM     10  C   UNL     1     -25.548   0.590  10.682  1.00  0.00    +0.208 C 
BRANCH  10  11
ATOM     11  C   UNL     1     -26.709   0.535   9.692  1.00  0.00    +0.317 C 
ATOM     12  O   UNL     1     -27.741  -0.113   9.765  1.00  0.00    -0.251 OA
BRANCH  11  13
ATOM     13  O   UNL     1     -26.467   1.280   8.589  1.00  0.00    -0.480 OA
ATOM     14  H   UNL     1     -26.335   0.608   7.886  1.00  0.00    +0.296 HD
ENDBRANCH  11  13
ENDBRANCH  10  11
ENDBRANCH   1  10
TORSDOF 7
ENDMDL
MODEL 7
REMARK VINA RESULT:    -4.516      2.471      3.808
REMARK INTER + INTRA:          -6.705
REMARK INTER:                  -6.211
REMARK INTRA:                  -0.493
REMARK UNBOUND:                -0.604
REMARK SMILES CC(C)N(CC(=O)O)CC(=O)O
REMARK SMILES IDX 4 1 2 2 1 3 3 4 5 5 6 6 7 7 8 8 9 10 10 11 11 12 12 13
REMARK H PARENT 8 9 12 14
ROOT
ATOM      1  N   UNL     1     -26.976   1.839  10.886  1.00  0.00    -0.280 NA
ENDROOT
BRANCH   1   2
ATOM      2  C   UNL     1     -28.382   1.478  11.152  1.00  0.00    +0.051 C 
ATOM      3  C   UNL     1     -28.759   1.431  12.638  1.00  0.00    +0.024 C 
ATOM      4  C   UNL     1     -28.782   0.168  10.461  1.00  0.00    +0.024 C 
ENDBRANCH   1   2
BRANCH   1   5
ATOM      5  C   UNL     1     -26.011   0.719  10.964  1.00  0.00    +0.208 C 
BRANCH   5   6
ATOM      6  C   UNL     1     -25.158   0.637   9.700  1.00  0.00    +0.317 C 
ATOM      7  O   UNL     1     -24.262   1.378   9.330  1.00  0.00    -0.251 OA
BRANCH   6   8
ATOM      8  O   UNL     1     -25.539  -0.393   8.909  1.00  0.00    -0.480 OA
ATOM      9  H   UNL     1     -25.877   0.063   8.109  1.00  0.00    +0.296 HD
ENDBRANCH   6   8
ENDBRANCH   5   6
ENDBRANCH   1   5
BRANCH   1  10
ATOM     10  C   UNL     1     -26.537   3.027  11.645  1.00  0.00    +0.208 C 
BRANCH  10  11
ATOM     11  C   UNL     1     -25.823   4.055  10.769  1.00  0.00    +0.317 C 
ATOM     12  O   UNL     1     -26.302   4.804   9.932  1.00  0.00    -0.251 OA
BRANCH  11  13
ATOM     13  O   UNL     1     -24.484   4.035  10.958  1.00  0.00    -0.480 OA
ATOM     14  H   UNL     1     -24.350   3.261  11.547  1.00  0.00    +0.296 HD
ENDBRANCH  11  13
ENDBRANCH  10  11
ENDBRANCH   1  10
TORSDOF 7
ENDMDL
MODEL 8
REMARK VINA RESULT:    -4.508      2.504      4.187
REMARK INTER + INTRA:          -6.694
REMARK INTER:                  -6.361
REMARK INTRA:                  -0.334
REMARK UNBOUND:                -0.604
REMARK SMILES CC(C)N(CC(=O)O)CC(=O)O
REMARK SMILES IDX 4 1 2 2 1 3 3 4 5 5 6 6 7 7 8 8 9 10 10 11 11 12 12 13
REMARK H PARENT 8 9 12 14
ROOT
ATOM      1  N   UNL     1     -24.876   2.050   9.773  1.00  0.00    -0.280 NA
ENDROOT
BRANCH   1   2
ATOM      2  C   UNL     1     -23.649   1.251   9.955  1.00  0.00    +0.051 C 
ATOM      3  C   UNL     1     -23.892  -0.238  10.237  1.00  0.00    +0.024 C 
ATOM      4  C   UNL     1     -22.724   1.849  11.023  1.00  0.00    +0.024 C 
ENDBRANCH   1   2
BRANCH   1   5
ATOM      5  C   UNL     1     -24.809   3.436  10.288  1.00  0.00    +0.208 C 
BRANCH   5   6
ATOM      6  C   UNL     1     -25.518   4.409   9.347  1.00  0.00    +0.317 C 
ATOM      7  O   UNL     1     -25.199   4.756   8.221  1.00  0.00    -0.251 OA
BRANCH   6   8
ATOM      8  O   UNL     1     -26.612   4.955   9.928  1.00  0.00    -0.480 OA
ATOM      9  H   UNL     1     -27.170   5.189   9.156  1.00  0.00    +0.296 HD
ENDBRANCH   6   8
ENDBRANCH   5   6
ENDBRANCH   1   5
BRANCH   1  10
ATOM     10  C   UNL     1     -26.094   1.337  10.207  1.00  0.00    +0.208 C 
BRANCH  10  11
ATOM     11  C   UNL     1     -26.589   1.797  11.577  1.00  0.00    +0.317 C 
ATOM     12  O   UNL     1     -27.375   2.694  11.839  1.00  0.00    -0.251 OA
BRANCH  11  13
ATOM     13  O   UNL     1     -25.992   1.118  12.583  1.00  0.00    -0.480 OA
ATOM     14  H   UNL     1     -25.727   1.826  13.208  1.00  0.00    +0.296 HD
ENDBRANCH  11  13
ENDBRANCH  10  11
ENDBRANCH   1  10
TORSDOF 7
ENDMDL
MODEL 9
REMARK VINA RESULT:    -4.391      2.161      3.325
REMARK INTER + INTRA:          -6.536
REMARK INTER:                  -6.182
REMARK INTRA:                  -0.353
REMARK UNBOUND:                -0.604
REMARK SMILES CC(C)N(CC(=O)O)CC(=O)O
REMARK SMILES IDX 4 1 2 2 1 3 3 4 5 5 6 6 7 7 8 8 9 10 10 11 11 12 12 13
REMARK H PARENT 8 9 12 14
ROOT
ATOM      1  N   UNL     1     -26.270   1.727  10.164  1.00  0.00    -0.280 NA
ENDROOT
BRANCH   1   2
ATOM      2  C   UNL     1     -27.261   0.940  10.923  1.00  0.00    +0.051 C 
ATOM      3  C   UNL     1     -27.028   0.911  12.439  1.00  0.00    +0.024 C 
ATOM      4  C   UNL     1     -27.404  -0.487  10.380  1.00  0.00    +0.024 C 
ENDBRANCH   1   2
BRANCH   1   5
ATOM      5  C   UNL     1     -26.835   2.771   9.280  1.00  0.00    +0.208 C 
BRANCH   5   6
ATOM      6  C   UNL     1     -26.000   4.049   9.334  1.00  0.00    +0.317 C 
ATOM      7  O   UNL     1     -25.257   4.516   8.486  1.00  0.00    -0.251 OA
BRANCH   6   8
ATOM      8  O   UNL     1     -26.113   4.667  10.533  1.00  0.00    -0.480 OA
ATOM      9  H   UNL     1     -25.206   4.595  10.898  1.00  0.00    +0.296 HD
ENDBRANCH   6   8
ENDBRANCH   5   6
ENDBRANCH   1   5
BRANCH   1  10
ATOM     10  C   UNL     1     -25.269   0.880   9.482  1.00  0.00    +0.208 C 
BRANCH  10  11
ATOM     11  C   UNL     1     -23.845   1.151   9.962  1.00  0.00    +0.317 C 
ATOM     12  O   UNL     1     -23.452   1.361  11.099  1.00  0.00    -0.251 OA
BRANCH  11  13
ATOM     13  O   UNL     1     -22.969   1.210   8.933  1.00  0.00    -0.480 OA
ATOM     14  H   UNL     1     -23.283   1.979   8.411  1.00  0.00    +0.296 HD
ENDBRANCH  11  13
ENDBRANCH  10  11
ENDBRANCH   1  10
TORSDOF 7
ENDMDL
