REMARK SMILES Cc1nnc(S)nc1O
REMARK SMILES IDX 1 1 2 2 8 3 7 4 5 5 4 6 3 7 9 8 6 10
REMARK H PARENT 9 9 6 11
ROOT
ATOM      1  C   UNL     1      -2.072  -0.996  -0.010  1.00  0.00    +0.075 C 
ATOM      2  C   UNL     1      -0.664  -0.510  -0.059  1.00  0.00    +0.122 A 
ATOM      3  C   UNL     1      -0.308   0.781   0.272  1.00  0.00    +0.237 A 
ATOM      4  N   UNL     1       0.941   1.261   0.243  1.00  0.00    -0.184 NA
ATOM      5  C   UNL     1       1.861   0.364  -0.147  1.00  0.00    +0.209 A 
ATOM      6  N   UNL     1       1.590  -0.917  -0.487  1.00  0.00    -0.123 NA
ATOM      7  N   UNL     1       0.303  -1.364  -0.443  1.00  0.00    -0.148 NA
ENDROOT
BRANCH   3   8
ATOM      8  O   UNL     1      -1.230   1.697   0.668  1.00  0.00    -0.492 OA
ATOM      9  H   UNL     1      -0.663   2.475   0.820  1.00  0.00    +0.295 HD
ENDBRANCH   3   8
BRANCH   5  10
ATOM     10  S   UNL     1       3.548   0.886  -0.224  1.00  0.00    -0.102 SA
ATOM     11  H   UNL     1       3.996  -0.306  -0.637  1.00  0.00    +0.111 HD
ENDBRANCH   5  10
TORSDOF 2
