REMARK SMILES CC(C)(CCN(CC(=O)O)CC(=O)O)[N+](=O)[O-]
REMARK SMILES IDX 5 1 4 2 2 3 1 4 3 5 15 6 16 7 17 8 6 9 7 10 8 11 9 12 10 13
REMARK SMILES IDX 11 15 12 16 13 17 14 18
REMARK H PARENT 10 14 14 19
ROOT
ATOM      1  C   UNL     1       0.319   0.483  -0.152  1.00  0.00    +0.093 C 
ENDROOT
BRANCH   1   2
ATOM      2  C   UNL     1      -0.860  -0.503  -0.083  1.00  0.00    +0.101 C 
BRANCH   2   3
ATOM      3  C   UNL     1      -2.267   0.142  -0.172  1.00  0.00    +0.218 C 
ATOM      4  C   UNL     1      -2.481   0.866  -1.510  1.00  0.00    +0.097 C 
ATOM      5  C   UNL     1      -3.351  -0.931   0.011  1.00  0.00    +0.097 C 
BRANCH   3   6
ATOM      6  N   UNL     1      -2.448   1.131   0.986  1.00  0.00    +0.025 N 
ATOM      7  O   UNL     1      -2.029   0.785   2.099  1.00  0.00    -0.264 OA
ATOM      8  O   UNL     1      -3.022   2.202   0.751  1.00  0.00    -0.264 OA
ENDBRANCH   3   6
ENDBRANCH   2   3
ENDBRANCH   1   2
BRANCH   1   9
ATOM      9  N   UNL     1       1.632  -0.182  -0.252  1.00  0.00    -0.282 NA
BRANCH   9  10
ATOM     10  C   UNL     1       2.014  -0.938   0.965  1.00  0.00    +0.208 C 
BRANCH  10  11
ATOM     11  C   UNL     1       1.544  -2.383   0.898  1.00  0.00    +0.317 C 
ATOM     12  O   UNL     1       0.870  -2.961   1.738  1.00  0.00    -0.251 OA
BRANCH  11  13
ATOM     13  O   UNL     1       1.974  -3.046  -0.197  1.00  0.00    -0.480 OA
ATOM     14  H   UNL     1       1.599  -3.944  -0.093  1.00  0.00    +0.296 HD
ENDBRANCH  11  13
ENDBRANCH  10  11
ENDBRANCH   9  10
BRANCH   9  15
ATOM     15  C   UNL     1       2.694   0.781  -0.633  1.00  0.00    +0.208 C 
BRANCH  15  16
ATOM     16  C   UNL     1       2.874   1.929   0.348  1.00  0.00    +0.317 C 
ATOM     17  O   UNL     1       2.343   3.026   0.277  1.00  0.00    -0.251 OA
BRANCH  16  18
ATOM     18  O   UNL     1       3.674   1.624   1.390  1.00  0.00    -0.480 OA
ATOM     19  H   UNL     1       3.664   2.436   1.940  1.00  0.00    +0.296 HD
ENDBRANCH  16  18
ENDBRANCH  15  16
ENDBRANCH   9  15
ENDBRANCH   1   9
TORSDOF 10
