MODEL 1
REMARK VINA RESULT:    -4.989      0.000      0.000
REMARK INTER + INTRA:          -6.994
REMARK INTER:                  -6.738
REMARK INTRA:                  -0.255
REMARK UNBOUND:                -0.255
REMARK SMILES CCCCOC(=O)CSC#N
REMARK SMILES IDX 4 1 3 2 2 3 1 4 5 5 6 6 7 7 8 8 9 9 10 10 11 11
REMARK H PARENT
ROOT
ATOM      1  C   UNL     1     -25.590   4.730   9.124  1.00  0.00    +0.233 C 
ENDROOT
BRANCH   1   2
ATOM      2  C   UNL     1     -26.330   5.740   8.250  1.00  0.00    +0.041 C 
BRANCH   2   3
ATOM      3  C   UNL     1     -25.404   6.575   7.368  1.00  0.00    +0.000 C 
ATOM      4  C   UNL     1     -26.137   7.620   6.542  1.00  0.00    +0.004 C 
ENDBRANCH   2   3
ENDBRANCH   1   2
BRANCH   1   5
ATOM      5  O   UNL     1     -26.395   4.393  10.268  1.00  0.00    -0.465 OA
BRANCH   5   6
ATOM      6  C   UNL     1     -25.713   3.944  11.363  1.00  0.00    +0.316 C 
ATOM      7  O   UNL     1     -26.114   4.023  12.516  1.00  0.00    -0.251 OA
BRANCH   6   8
ATOM      8  C   UNL     1     -24.385   3.370  10.915  1.00  0.00    +0.208 C 
BRANCH   8   9
ATOM      9  S   UNL     1     -24.317   1.563  11.079  1.00  0.00    -0.035 SA
ATOM     10  C   UNL     1     -25.307   1.175   9.766  1.00  0.00    +0.133 C 
ATOM     11  N   UNL     1     -25.963   0.943   8.840  1.00  0.00    -0.185 NA
ENDBRANCH   8   9
ENDBRANCH   6   8
ENDBRANCH   5   6
ENDBRANCH   1   5
TORSDOF 6
ENDMDL
MODEL 2
REMARK VINA RESULT:    -4.539      2.105      2.571
REMARK INTER + INTRA:          -6.386
REMARK INTER:                  -6.216
REMARK INTRA:                  -0.169
REMARK UNBOUND:                -0.255
REMARK SMILES CCCCOC(=O)CSC#N
REMARK SMILES IDX 4 1 3 2 2 3 1 4 5 5 6 6 7 7 8 8 9 9 10 10 11 11
REMARK H PARENT
ROOT
ATOM      1  C   UNL     1     -26.052   3.863   9.219  1.00  0.00    +0.233 C 
ENDROOT
BRANCH   1   2
ATOM      2  C   UNL     1     -25.439   5.136   8.641  1.00  0.00    +0.041 C 
BRANCH   2   3
ATOM      3  C   UNL     1     -26.445   6.017   7.903  1.00  0.00    +0.000 C 
ATOM      4  C   UNL     1     -25.795   7.050   6.998  1.00  0.00    +0.004 C 
ENDBRANCH   2   3
ENDBRANCH   1   2
BRANCH   1   5
ATOM      5  O   UNL     1     -25.014   2.912   9.514  1.00  0.00    -0.465 OA
BRANCH   5   6
ATOM      6  C   UNL     1     -25.416   1.612   9.637  1.00  0.00    +0.316 C 
ATOM      7  O   UNL     1     -25.994   0.974   8.768  1.00  0.00    -0.251 OA
BRANCH   6   8
ATOM      8  C   UNL     1     -25.058   1.115  11.022  1.00  0.00    +0.208 C 
BRANCH   8   9
ATOM      9  S   UNL     1     -23.273   0.858  11.230  1.00  0.00    -0.035 SA
ATOM     10  C   UNL     1     -23.169  -0.648  10.470  1.00  0.00    +0.133 C 
ATOM     11  N   UNL     1     -23.127  -1.664   9.916  1.00  0.00    -0.185 NA
ENDBRANCH   8   9
ENDBRANCH   6   8
ENDBRANCH   5   6
ENDBRANCH   1   5
TORSDOF 6
ENDMDL
MODEL 3
REMARK VINA RESULT:    -4.530      8.633      9.676
REMARK INTER + INTRA:          -6.374
REMARK INTER:                  -6.205
REMARK INTRA:                  -0.169
REMARK UNBOUND:                -0.255
REMARK SMILES CCCCOC(=O)CSC#N
REMARK SMILES IDX 4 1 3 2 2 3 1 4 5 5 6 6 7 7 8 8 9 9 10 10 11 11
REMARK H PARENT
ROOT
ATOM      1  C   UNL     1     -30.827   8.489   7.184  1.00  0.00    +0.233 C 
ENDROOT
BRANCH   1   2
ATOM      2  C   UNL     1     -31.909   7.462   6.859  1.00  0.00    +0.041 C 
BRANCH   2   3
ATOM      3  C   UNL     1     -32.340   7.475   5.394  1.00  0.00    +0.000 C 
ATOM      4  C   UNL     1     -33.572   6.628   5.119  1.00  0.00    +0.004 C 
ENDBRANCH   2   3
ENDBRANCH   1   2
BRANCH   1   5
ATOM      5  O   UNL     1     -31.421   9.788   7.355  1.00  0.00    -0.465 OA
BRANCH   5   6
ATOM      6  C   UNL     1     -30.810  10.814   6.692  1.00  0.00    +0.316 C 
ATOM      7  O   UNL     1     -31.306  11.441   5.766  1.00  0.00    -0.251 OA
BRANCH   6   8
ATOM      8  C   UNL     1     -29.424  11.015   7.268  1.00  0.00    +0.208 C 
BRANCH   8   9
ATOM      9  S   UNL     1     -28.117  10.820   6.024  1.00  0.00    -0.035 SA
ATOM     10  C   UNL     1     -28.107  12.409   5.450  1.00  0.00    +0.133 C 
ATOM     11  N   UNL     1     -28.104  13.514   5.102  1.00  0.00    -0.185 NA
ENDBRANCH   8   9
ENDBRANCH   6   8
ENDBRANCH   5   6
ENDBRANCH   1   5
TORSDOF 6
ENDMDL
MODEL 4
REMARK VINA RESULT:    -4.528      7.461      8.611
REMARK INTER + INTRA:          -6.372
REMARK INTER:                  -6.208
REMARK INTRA:                  -0.163
REMARK UNBOUND:                -0.255
REMARK SMILES CCCCOC(=O)CSC#N
REMARK SMILES IDX 4 1 3 2 2 3 1 4 5 5 6 6 7 7 8 8 9 9 10 10 11 11
REMARK H PARENT
ROOT
ATOM      1  C   UNL     1     -31.784   9.034   6.358  1.00  0.00    +0.233 C 
ENDROOT
BRANCH   1   2
ATOM      2  C   UNL     1     -31.906   7.674   5.676  1.00  0.00    +0.041 C 
BRANCH   2   3
ATOM      3  C   UNL     1     -33.038   6.813   6.233  1.00  0.00    +0.000 C 
ATOM      4  C   UNL     1     -33.732   5.969   5.176  1.00  0.00    +0.004 C 
ENDBRANCH   2   3
ENDBRANCH   1   2
BRANCH   1   5
ATOM      5  O   UNL     1     -30.437   9.227   6.825  1.00  0.00    -0.465 OA
BRANCH   5   6
ATOM      6  C   UNL     1     -30.087  10.515   7.117  1.00  0.00    +0.316 C 
ATOM      7  O   UNL     1     -30.866  11.388   7.471  1.00  0.00    -0.251 OA
BRANCH   6   8
ATOM      8  C   UNL     1     -28.597  10.680   6.899  1.00  0.00    +0.208 C 
BRANCH   8   9
ATOM      9  S   UNL     1     -27.718   9.091   6.863  1.00  0.00    -0.035 SA
ATOM     10  C   UNL     1     -27.043   9.239   5.321  1.00  0.00    +0.133 C 
ATOM     11  N   UNL     1     -26.569   9.386   4.274  1.00  0.00    -0.185 NA
ENDBRANCH   8   9
ENDBRANCH   6   8
ENDBRANCH   5   6
ENDBRANCH   1   5
TORSDOF 6
ENDMDL
MODEL 5
REMARK VINA RESULT:    -4.484      6.003      7.298
REMARK INTER + INTRA:          -6.313
REMARK INTER:                  -6.103
REMARK INTRA:                  -0.210
REMARK UNBOUND:                -0.255
REMARK SMILES CCCCOC(=O)CSC#N
REMARK SMILES IDX 4 1 3 2 2 3 1 4 5 5 6 6 7 7 8 8 9 9 10 10 11 11
REMARK H PARENT
ROOT
ATOM      1  C   UNL     1     -30.739   9.377   7.129  1.00  0.00    +0.233 C 
ENDROOT
BRANCH   1   2
ATOM      2  C   UNL     1     -32.073   8.644   7.244  1.00  0.00    +0.041 C 
BRANCH   2   3
ATOM      3  C   UNL     1     -32.068   7.263   6.591  1.00  0.00    +0.000 C 
ATOM      4  C   UNL     1     -32.598   7.267   5.166  1.00  0.00    +0.004 C 
ENDBRANCH   2   3
ENDBRANCH   1   2
BRANCH   1   5
ATOM      5  O   UNL     1     -29.709   8.457   6.725  1.00  0.00    -0.465 OA
BRANCH   5   6
ATOM      6  C   UNL     1     -28.526   8.554   7.401  1.00  0.00    +0.316 C 
ATOM      7  O   UNL     1     -28.191   7.831   8.329  1.00  0.00    -0.251 OA
BRANCH   6   8
ATOM      8  C   UNL     1     -27.730   9.711   6.835  1.00  0.00    +0.208 C 
BRANCH   8   9
ATOM      9  S   UNL     1     -26.525   9.181   5.585  1.00  0.00    -0.035 SA
ATOM     10  C   UNL     1     -25.358   8.562   6.640  1.00  0.00    +0.133 C 
ATOM     11  N   UNL     1     -24.594   8.117   7.388  1.00  0.00    -0.185 NA
ENDBRANCH   8   9
ENDBRANCH   6   8
ENDBRANCH   5   6
ENDBRANCH   1   5
TORSDOF 6
ENDMDL
MODEL 6
REMARK VINA RESULT:    -4.413     10.337     10.941
REMARK INTER + INTRA:          -6.216
REMARK INTER:                  -5.996
REMARK INTRA:                  -0.220
REMARK UNBOUND:                -0.255
REMARK SMILES CCCCOC(=O)CSC#N
REMARK SMILES IDX 4 1 3 2 2 3 1 4 5 5 6 6 7 7 8 8 9 9 10 10 11 11
REMARK H PARENT
ROOT
ATOM      1  C   UNL     1     -34.321   5.549   7.720  1.00  0.00    +0.233 C 
ENDROOT
BRANCH   1   2
ATOM      2  C   UNL     1     -34.392   6.388   6.447  1.00  0.00    +0.041 C 
BRANCH   2   3
ATOM      3  C   UNL     1     -33.272   6.084   5.454  1.00  0.00    +0.000 C 
ATOM      4  C   UNL     1     -32.382   7.282   5.161  1.00  0.00    +0.004 C 
ENDBRANCH   2   3
ENDBRANCH   1   2
BRANCH   1   5
ATOM      5  O   UNL     1     -35.571   5.629   8.427  1.00  0.00    -0.465 OA
BRANCH   5   6
ATOM      6  C   UNL     1     -36.110   4.437   8.820  1.00  0.00    +0.316 C 
ATOM      7  O   UNL     1     -36.482   3.554   8.060  1.00  0.00    -0.251 OA
BRANCH   6   8
ATOM      8  C   UNL     1     -36.196   4.410  10.332  1.00  0.00    +0.208 C 
BRANCH   8   9
ATOM      9  S   UNL     1     -37.876   4.067  10.928  1.00  0.00    -0.035 SA
ATOM     10  C   UNL     1     -38.606   5.493  10.390  1.00  0.00    +0.133 C 
ATOM     11  N   UNL     1     -39.082   6.467   9.980  1.00  0.00    -0.185 NA
ENDBRANCH   8   9
ENDBRANCH   6   8
ENDBRANCH   5   6
ENDBRANCH   1   5
TORSDOF 6
ENDMDL
MODEL 7
REMARK VINA RESULT:    -4.384      3.691      5.760
REMARK INTER + INTRA:          -6.177
REMARK INTER:                  -5.958
REMARK INTRA:                  -0.220
REMARK UNBOUND:                -0.255
REMARK SMILES CCCCOC(=O)CSC#N
REMARK SMILES IDX 4 1 3 2 2 3 1 4 5 5 6 6 7 7 8 8 9 9 10 10 11 11
REMARK H PARENT
ROOT
ATOM      1  C   UNL     1     -27.831  -0.355  10.187  1.00  0.00    +0.233 C 
ENDROOT
BRANCH   1   2
ATOM      2  C   UNL     1     -29.246   0.166  10.423  1.00  0.00    +0.041 C 
BRANCH   2   3
ATOM      3  C   UNL     1     -30.322  -0.651   9.711  1.00  0.00    +0.000 C 
ATOM      4  C   UNL     1     -31.336  -1.271  10.660  1.00  0.00    +0.004 C 
ENDBRANCH   2   3
ENDBRANCH   1   2
BRANCH   1   5
ATOM      5  O   UNL     1     -26.877   0.522  10.813  1.00  0.00    -0.465 OA
BRANCH   5   6
ATOM      6  C   UNL     1     -25.807   0.883  10.045  1.00  0.00    +0.316 C 
ATOM      7  O   UNL     1     -25.838   1.039   8.832  1.00  0.00    -0.251 OA
BRANCH   6   8
ATOM      8  C   UNL     1     -24.588   1.021  10.934  1.00  0.00    +0.208 C 
BRANCH   8   9
ATOM      9  S   UNL     1     -23.903   2.702  10.919  1.00  0.00    -0.035 SA
ATOM     10  C   UNL     1     -25.272   3.513  11.488  1.00  0.00    +0.133 C 
ATOM     11  N   UNL     1     -26.216   4.034  11.911  1.00  0.00    -0.185 NA
ENDBRANCH   8   9
ENDBRANCH   6   8
ENDBRANCH   5   6
ENDBRANCH   1   5
TORSDOF 6
ENDMDL
MODEL 8
REMARK VINA RESULT:    -4.319      3.114      5.352
REMARK INTER + INTRA:          -6.090
REMARK INTER:                  -5.827
REMARK INTRA:                  -0.263
REMARK UNBOUND:                -0.255
REMARK SMILES CCCCOC(=O)CSC#N
REMARK SMILES IDX 4 1 3 2 2 3 1 4 5 5 6 6 7 7 8 8 9 9 10 10 11 11
REMARK H PARENT
ROOT
ATOM      1  C   UNL     1     -27.201  -0.019  10.945  1.00  0.00    +0.233 C 
ENDROOT
BRANCH   1   2
ATOM      2  C   UNL     1     -28.356   0.579  11.745  1.00  0.00    +0.041 C 
BRANCH   2   3
ATOM      3  C   UNL     1     -27.907   1.590  12.799  1.00  0.00    +0.000 C 
ATOM      4  C   UNL     1     -28.760   1.569  14.057  1.00  0.00    +0.004 C 
ENDBRANCH   2   3
ENDBRANCH   1   2
BRANCH   1   5
ATOM      5  O   UNL     1     -26.020   0.785  11.117  1.00  0.00    -0.465 OA
BRANCH   5   6
ATOM      6  C   UNL     1     -25.511   1.345   9.979  1.00  0.00    +0.316 C 
ATOM      7  O   UNL     1     -25.812   1.012   8.842  1.00  0.00    -0.251 OA
BRANCH   6   8
ATOM      8  C   UNL     1     -24.503   2.408  10.364  1.00  0.00    +0.208 C 
BRANCH   8   9
ATOM      9  S   UNL     1     -25.285   3.996  10.767  1.00  0.00    -0.035 SA
ATOM     10  C   UNL     1     -25.344   4.626   9.200  1.00  0.00    +0.133 C 
ATOM     11  N   UNL     1     -25.399   5.015   8.110  1.00  0.00    -0.185 NA
ENDBRANCH   8   9
ENDBRANCH   6   8
ENDBRANCH   5   6
ENDBRANCH   1   5
TORSDOF 6
ENDMDL
MODEL 9
REMARK VINA RESULT:    -4.072      4.502      6.377
REMARK INTER + INTRA:          -5.756
REMARK INTER:                  -5.402
REMARK INTRA:                  -0.354
REMARK UNBOUND:                -0.255
REMARK SMILES CCCCOC(=O)CSC#N
REMARK SMILES IDX 4 1 3 2 2 3 1 4 5 5 6 6 7 7 8 8 9 9 10 10 11 11
REMARK H PARENT
ROOT
ATOM      1  C   UNL     1     -29.309   0.084  10.213  1.00  0.00    +0.233 C 
ENDROOT
BRANCH   1   2
ATOM      2  C   UNL     1     -30.498  -0.864  10.079  1.00  0.00    +0.041 C 
BRANCH   2   3
ATOM      3  C   UNL     1     -31.264  -1.067  11.385  1.00  0.00    +0.000 C 
ATOM      4  C   UNL     1     -32.306  -2.172  11.308  1.00  0.00    +0.004 C 
ENDBRANCH   2   3
ENDBRANCH   1   2
BRANCH   1   5
ATOM      5  O   UNL     1     -28.572  -0.221  11.410  1.00  0.00    -0.465 OA
BRANCH   5   6
ATOM      6  C   UNL     1     -27.857   0.811  11.948  1.00  0.00    +0.316 C 
ATOM      7  O   UNL     1     -27.051   0.700  12.861  1.00  0.00    -0.251 OA
BRANCH   6   8
ATOM      8  C   UNL     1     -28.252   2.097  11.254  1.00  0.00    +0.208 C 
BRANCH   8   9
ATOM      9  S   UNL     1     -26.815   3.053  10.689  1.00  0.00    -0.035 SA
ATOM     10  C   UNL     1     -26.190   1.910   9.611  1.00  0.00    +0.133 C 
ATOM     11  N   UNL     1     -25.807   1.118   8.858  1.00  0.00    -0.185 NA
ENDBRANCH   8   9
ENDBRANCH   6   8
ENDBRANCH   5   6
ENDBRANCH   1   5
TORSDOF 6
ENDMDL
