REMARK SMILES Cc1ccnc(N=Cc2ccccc2)c1
REMARK SMILES IDX 1 1 2 2 15 3 6 4 5 5 4 6 3 7 7 8 8 9 9 10 10 11 14 12 11 13
REMARK SMILES IDX 13 14 12 15
REMARK H PARENT
ROOT
ATOM      1  C   UNL     1      -4.687  -0.965  -1.290  1.00  0.00    +0.044 C 
ATOM      2  C   UNL     1      -3.616  -0.172  -0.605  1.00  0.00    -0.046 A 
ATOM      3  C   UNL     1      -2.268  -0.496  -0.777  1.00  0.00    +0.052 A 
ATOM      4  C   UNL     1      -1.296   0.235  -0.103  1.00  0.00    +0.151 A 
ATOM      5  N   UNL     1      -1.598   1.258   0.724  1.00  0.00    -0.237 NA
ATOM      6  C   UNL     1      -2.906   1.549   0.889  1.00  0.00    +0.114 A 
ATOM      7  C   UNL     1      -3.938   0.870   0.262  1.00  0.00    +0.023 A 
ENDROOT
BRANCH   4   8
ATOM      8  N   UNL     1       0.050  -0.094  -0.311  1.00  0.00    -0.237 NA
ATOM      9  C   UNL     1       0.938   0.392   0.495  1.00  0.00    +0.121 C 
BRANCH   9  10
ATOM     10  C   UNL     1       2.377   0.095   0.333  1.00  0.00    -0.007 A 
ATOM     11  C   UNL     1       2.831  -0.720  -0.708  1.00  0.00    +0.010 A 
ATOM     12  C   UNL     1       3.284   0.646   1.243  1.00  0.00    +0.010 A 
ATOM     13  C   UNL     1       4.195  -0.985  -0.837  1.00  0.00    +0.001 A 
ATOM     14  C   UNL     1       4.648   0.379   1.109  1.00  0.00    +0.001 A 
ATOM     15  C   UNL     1       5.101  -0.436   0.070  1.00  0.00    +0.000 A 
ENDBRANCH   9  10
ENDBRANCH   4   8
TORSDOF 2
