MODEL 1
REMARK VINA RESULT:    -4.384      0.000      0.000
REMARK INTER + INTRA:          -4.782
REMARK INTER:                  -4.768
REMARK INTRA:                  -0.014
REMARK UNBOUND:                -0.014
REMARK SMILES CCC(C)=NO
REMARK SMILES IDX 3 1 4 2 5 3 2 4 1 5 6 6
REMARK H PARENT 6 7
ROOT
ATOM      1  C   UNL     1     -28.252  12.034   5.559  1.00  0.00    +0.054 C 
ATOM      2  C   UNL     1     -27.554  10.714   5.773  1.00  0.00    +0.065 C 
ATOM      3  N   UNL     1     -27.614  12.963   4.911  1.00  0.00    -0.099 NA
ENDROOT
BRANCH   1   4
ATOM      4  C   UNL     1     -29.670  12.162   6.087  1.00  0.00    +0.051 C 
ATOM      5  C   UNL     1     -29.890  11.231   7.264  1.00  0.00    +0.010 C 
ENDBRANCH   1   4
BRANCH   3   6
ATOM      6  O   UNL     1     -28.389  14.116   4.762  1.00  0.00    -0.411 OA
ATOM      7  H   UNL     1     -29.285  13.794   4.972  1.00  0.00    +0.330 HD
ENDBRANCH   3   6
TORSDOF 2
ENDMDL
MODEL 2
REMARK VINA RESULT:    -4.138     15.877     16.185
REMARK INTER + INTRA:          -4.514
REMARK INTER:                  -4.481
REMARK INTRA:                  -0.034
REMARK UNBOUND:                -0.014
REMARK SMILES CCC(C)=NO
REMARK SMILES IDX 3 1 4 2 5 3 2 4 1 5 6 6
REMARK H PARENT 6 7
ROOT
ATOM      1  C   UNL     1     -33.578  -1.705   0.659  1.00  0.00    +0.054 C 
ATOM      2  C   UNL     1     -32.821  -0.680   1.467  1.00  0.00    +0.065 C 
ATOM      3  N   UNL     1     -34.467  -2.429   1.272  1.00  0.00    -0.099 NA
ENDROOT
BRANCH   1   4
ATOM      4  C   UNL     1     -33.269  -1.783  -0.825  1.00  0.00    +0.051 C 
ATOM      5  C   UNL     1     -33.891  -0.614  -1.565  1.00  0.00    +0.010 C 
ENDBRANCH   1   4
BRANCH   3   6
ATOM      6  O   UNL     1     -35.109  -3.311   0.398  1.00  0.00    -0.411 OA
ATOM      7  H   UNL     1     -35.425  -4.009   1.001  1.00  0.00    +0.330 HD
ENDBRANCH   3   6
TORSDOF 2
ENDMDL
MODEL 3
REMARK VINA RESULT:    -4.085     15.799     16.062
REMARK INTER + INTRA:          -4.458
REMARK INTER:                  -4.444
REMARK INTRA:                  -0.014
REMARK UNBOUND:                -0.014
REMARK SMILES CCC(C)=NO
REMARK SMILES IDX 3 1 4 2 5 3 2 4 1 5 6 6
REMARK H PARENT 6 7
ROOT
ATOM      1  C   UNL     1     -34.030  -1.569  -0.106  1.00  0.00    +0.054 C 
ATOM      2  C   UNL     1     -33.603  -0.480  -1.058  1.00  0.00    +0.065 C 
ATOM      3  N   UNL     1     -34.906  -2.435  -0.523  1.00  0.00    -0.099 NA
ENDROOT
BRANCH   1   4
ATOM      4  C   UNL     1     -33.372  -1.591   1.262  1.00  0.00    +0.051 C 
ATOM      5  C   UNL     1     -32.905  -0.202   1.655  1.00  0.00    +0.010 C 
ENDBRANCH   1   4
BRANCH   3   6
ATOM      6  O   UNL     1     -35.185  -3.399   0.450  1.00  0.00    -0.411 OA
ATOM      7  H   UNL     1     -36.084  -3.151   0.737  1.00  0.00    +0.330 HD
ENDBRANCH   3   6
TORSDOF 2
ENDMDL
MODEL 4
REMARK VINA RESULT:    -4.073      1.913      2.156
REMARK INTER + INTRA:          -4.444
REMARK INTER:                  -4.433
REMARK INTRA:                  -0.011
REMARK UNBOUND:                -0.014
REMARK SMILES CCC(C)=NO
REMARK SMILES IDX 3 1 4 2 5 3 2 4 1 5 6 6
REMARK H PARENT 6 7
ROOT
ATOM      1  C   UNL     1     -27.487  10.917   5.784  1.00  0.00    +0.054 C 
ATOM      2  C   UNL     1     -28.025   9.981   6.838  1.00  0.00    +0.065 C 
ATOM      3  N   UNL     1     -26.386  10.584   5.178  1.00  0.00    -0.099 NA
ENDROOT
BRANCH   1   4
ATOM      4  C   UNL     1     -28.300  12.163   5.483  1.00  0.00    +0.051 C 
ATOM      5  C   UNL     1     -29.656  12.095   6.161  1.00  0.00    +0.010 C 
ENDBRANCH   1   4
BRANCH   3   6
ATOM      6  O   UNL     1     -26.023  11.524   4.210  1.00  0.00    -0.411 OA
ATOM      7  H   UNL     1     -25.528  12.181   4.733  1.00  0.00    +0.330 HD
ENDBRANCH   3   6
TORSDOF 2
ENDMDL
MODEL 5
REMARK VINA RESULT:    -4.033      4.068      4.409
REMARK INTER + INTRA:          -4.401
REMARK INTER:                  -4.383
REMARK INTRA:                  -0.018
REMARK UNBOUND:                -0.014
REMARK SMILES CCC(C)=NO
REMARK SMILES IDX 3 1 4 2 5 3 2 4 1 5 6 6
REMARK H PARENT 6 7
ROOT
ATOM      1  C   UNL     1     -30.960   9.977   7.364  1.00  0.00    +0.054 C 
ATOM      2  C   UNL     1     -29.814   9.133   6.866  1.00  0.00    +0.065 C 
ATOM      3  N   UNL     1     -32.073   9.376   7.668  1.00  0.00    -0.099 NA
ENDROOT
BRANCH   1   4
ATOM      4  C   UNL     1     -30.712  11.467   7.511  1.00  0.00    +0.051 C 
ATOM      5  C   UNL     1     -29.818  11.973   6.393  1.00  0.00    +0.010 C 
ENDBRANCH   1   4
BRANCH   3   6
ATOM      6  O   UNL     1     -33.033  10.273   8.142  1.00  0.00    -0.411 OA
ATOM      7  H   UNL     1     -32.628  10.597   8.967  1.00  0.00    +0.330 HD
ENDBRANCH   3   6
TORSDOF 2
ENDMDL
MODEL 6
REMARK VINA RESULT:    -3.909      2.024      2.507
REMARK INTER + INTRA:          -4.266
REMARK INTER:                  -4.232
REMARK INTRA:                  -0.034
REMARK UNBOUND:                -0.014
REMARK SMILES CCC(C)=NO
REMARK SMILES IDX 3 1 4 2 5 3 2 4 1 5 6 6
REMARK H PARENT 6 7
ROOT
ATOM      1  C   UNL     1     -27.646  11.473   5.621  1.00  0.00    +0.054 C 
ATOM      2  C   UNL     1     -28.952  12.221   5.723  1.00  0.00    +0.065 C 
ATOM      3  N   UNL     1     -26.580  12.148   5.305  1.00  0.00    -0.099 NA
ENDROOT
BRANCH   1   4
ATOM      4  C   UNL     1     -27.671   9.989   5.937  1.00  0.00    +0.051 C 
ATOM      5  C   UNL     1     -28.075   9.754   7.381  1.00  0.00    +0.010 C 
ENDBRANCH   1   4
BRANCH   3   6
ATOM      6  O   UNL     1     -25.443  11.336   5.276  1.00  0.00    -0.411 OA
ATOM      7  H   UNL     1     -24.764  11.913   5.672  1.00  0.00    +0.330 HD
ENDBRANCH   3   6
TORSDOF 2
ENDMDL
MODEL 7
REMARK VINA RESULT:    -3.823     11.404     12.126
REMARK INTER + INTRA:          -4.173
REMARK INTER:                  -4.137
REMARK INTRA:                  -0.036
REMARK UNBOUND:                -0.014
REMARK SMILES CCC(C)=NO
REMARK SMILES IDX 3 1 4 2 5 3 2 4 1 5 6 6
REMARK H PARENT 6 7
ROOT
ATOM      1  C   UNL     1     -24.732   2.434  10.243  1.00  0.00    +0.054 C 
ATOM      2  C   UNL     1     -24.733   3.870  10.706  1.00  0.00    +0.065 C 
ATOM      3  N   UNL     1     -25.408   2.139   9.172  1.00  0.00    -0.099 NA
ENDROOT
BRANCH   1   4
ATOM      4  C   UNL     1     -23.905   1.447  11.047  1.00  0.00    +0.051 C 
ATOM      5  C   UNL     1     -22.424   1.663  10.799  1.00  0.00    +0.010 C 
ENDBRANCH   1   4
BRANCH   3   6
ATOM      6  O   UNL     1     -25.295   0.785   8.845  1.00  0.00    -0.411 OA
ATOM      7  H   UNL     1     -25.143   0.372   9.716  1.00  0.00    +0.330 HD
ENDBRANCH   3   6
TORSDOF 2
ENDMDL
MODEL 8
REMARK VINA RESULT:    -3.754     10.837     11.267
REMARK INTER + INTRA:          -4.097
REMARK INTER:                  -4.061
REMARK INTRA:                  -0.036
REMARK UNBOUND:                -0.014
REMARK SMILES CCC(C)=NO
REMARK SMILES IDX 3 1 4 2 5 3 2 4 1 5 6 6
REMARK H PARENT 6 7
ROOT
ATOM      1  C   UNL     1     -26.348   2.362   9.809  1.00  0.00    +0.054 C 
ATOM      2  C   UNL     1     -27.645   3.119   9.946  1.00  0.00    +0.065 C 
ATOM      3  N   UNL     1     -26.262   1.465   8.872  1.00  0.00    -0.099 NA
ENDROOT
BRANCH   1   4
ATOM      4  C   UNL     1     -25.223   2.736  10.757  1.00  0.00    +0.051 C 
ATOM      5  C   UNL     1     -24.703   4.128  10.449  1.00  0.00    +0.010 C 
ENDBRANCH   1   4
BRANCH   3   6
ATOM      6  O   UNL     1     -25.000   0.866   8.842  1.00  0.00    -0.411 OA
ATOM      7  H   UNL     1     -24.733   0.987   7.912  1.00  0.00    +0.330 HD
ENDBRANCH   3   6
TORSDOF 2
ENDMDL
MODEL 9
REMARK VINA RESULT:    -3.747      9.610     10.182
REMARK INTER + INTRA:          -4.090
REMARK INTER:                  -4.064
REMARK INTRA:                  -0.027
REMARK UNBOUND:                -0.014
REMARK SMILES CCC(C)=NO
REMARK SMILES IDX 3 1 4 2 5 3 2 4 1 5 6 6
REMARK H PARENT 6 7
ROOT
ATOM      1  C   UNL     1     -25.644   3.372   9.578  1.00  0.00    +0.054 C 
ATOM      2  C   UNL     1     -24.695   4.033  10.546  1.00  0.00    +0.065 C 
ATOM      3  N   UNL     1     -25.614   2.075   9.484  1.00  0.00    -0.099 NA
ENDROOT
BRANCH   1   4
ATOM      4  C   UNL     1     -26.594   4.275   8.812  1.00  0.00    +0.051 C 
ATOM      5  C   UNL     1     -25.831   5.384   8.111  1.00  0.00    +0.010 C 
ENDBRANCH   1   4
BRANCH   3   6
ATOM      6  O   UNL     1     -26.563   1.599   8.575  1.00  0.00    -0.411 OA
ATOM      7  H   UNL     1     -27.224   1.186   9.160  1.00  0.00    +0.330 HD
ENDBRANCH   3   6
TORSDOF 2
ENDMDL
