MODEL 1
REMARK VINA RESULT:    -6.180      0.000      0.000
REMARK INTER + INTRA:          -6.740
REMARK INTER:                  -6.722
REMARK INTRA:                  -0.018
REMARK UNBOUND:                -0.018
REMARK SMILES O=C(O)c1ccccc1
REMARK SMILES IDX 2 1 1 2 3 3 4 5 5 6 9 7 6 8 8 9 7 10
REMARK H PARENT 3 4
ROOT
ATOM      1  C   UNL     1     -26.255  10.113   5.477  1.00  0.00    +0.335 C 
ATOM      2  O   UNL     1     -25.156  10.339   5.952  1.00  0.00    -0.246 OA
ENDROOT
BRANCH   1   3
ATOM      3  O   UNL     1     -26.409   9.246   4.461  1.00  0.00    -0.478 OA
ATOM      4  H   UNL     1     -26.398   8.369   4.899  1.00  0.00    +0.297 HD
ENDBRANCH   1   3
BRANCH   1   5
ATOM      5  C   UNL     1     -27.533  10.721   5.917  1.00  0.00    +0.059 A 
ATOM      6  C   UNL     1     -28.384  10.086   6.832  1.00  0.00    +0.015 A 
ATOM      7  C   UNL     1     -27.889  11.971   5.393  1.00  0.00    +0.015 A 
ATOM      8  C   UNL     1     -29.579  10.698   7.217  1.00  0.00    +0.001 A 
ATOM      9  C   UNL     1     -29.085  12.578   5.780  1.00  0.00    +0.001 A 
ATOM     10  C   UNL     1     -29.928  11.942   6.691  1.00  0.00    +0.000 A 
ENDBRANCH   1   5
TORSDOF 2
ENDMDL
MODEL 2
REMARK VINA RESULT:    -6.096      0.219      1.920
REMARK INTER + INTRA:          -6.648
REMARK INTER:                  -6.628
REMARK INTRA:                  -0.020
REMARK UNBOUND:                -0.018
REMARK SMILES O=C(O)c1ccccc1
REMARK SMILES IDX 2 1 1 2 3 3 4 5 5 6 9 7 6 8 8 9 7 10
REMARK H PARENT 3 4
ROOT
ATOM      1  C   UNL     1     -26.274  10.114   5.365  1.00  0.00    +0.335 C 
ATOM      2  O   UNL     1     -26.204   9.081   4.726  1.00  0.00    -0.246 OA
ENDROOT
BRANCH   1   3
ATOM      3  O   UNL     1     -25.165  10.777   5.741  1.00  0.00    -0.478 OA
ATOM      4  H   UNL     1     -24.680  10.126   6.291  1.00  0.00    +0.297 HD
ENDBRANCH   1   3
BRANCH   1   5
ATOM      5  C   UNL     1     -27.522  10.779   5.810  1.00  0.00    +0.059 A 
ATOM      6  C   UNL     1     -27.908  12.037   5.329  1.00  0.00    +0.015 A 
ATOM      7  C   UNL     1     -28.331  10.116   6.742  1.00  0.00    +0.015 A 
ATOM      8  C   UNL     1     -29.094  12.623   5.777  1.00  0.00    +0.001 A 
ATOM      9  C   UNL     1     -29.515  10.706   7.188  1.00  0.00    +0.001 A 
ATOM     10  C   UNL     1     -29.895  11.958   6.706  1.00  0.00    +0.000 A 
ENDBRANCH   1   5
TORSDOF 2
ENDMDL
MODEL 3
REMARK VINA RESULT:    -5.734      3.613      4.738
REMARK INTER + INTRA:          -6.255
REMARK INTER:                  -6.231
REMARK INTRA:                  -0.025
REMARK UNBOUND:                -0.018
REMARK SMILES O=C(O)c1ccccc1
REMARK SMILES IDX 2 1 1 2 3 3 4 5 5 6 9 7 6 8 8 9 7 10
REMARK H PARENT 3 4
ROOT
ATOM      1  C   UNL     1     -32.139   9.293   7.387  1.00  0.00    +0.335 C 
ATOM      2  O   UNL     1     -32.415   8.141   7.107  1.00  0.00    -0.246 OA
ENDROOT
BRANCH   1   3
ATOM      3  O   UNL     1     -32.963  10.043   8.140  1.00  0.00    -0.478 OA
ATOM      4  H   UNL     1     -32.373  10.420   8.826  1.00  0.00    +0.297 HD
ENDBRANCH   1   3
BRANCH   1   5
ATOM      5  C   UNL     1     -30.917  10.020   6.969  1.00  0.00    +0.059 A 
ATOM      6  C   UNL     1     -30.949  11.364   6.571  1.00  0.00    +0.015 A 
ATOM      7  C   UNL     1     -29.698   9.330   6.976  1.00  0.00    +0.015 A 
ATOM      8  C   UNL     1     -29.771  12.007   6.185  1.00  0.00    +0.001 A 
ATOM      9  C   UNL     1     -28.523   9.977   6.588  1.00  0.00    +0.001 A 
ATOM     10  C   UNL     1     -28.561  11.314   6.194  1.00  0.00    +0.000 A 
ENDBRANCH   1   5
TORSDOF 2
ENDMDL
MODEL 4
REMARK VINA RESULT:    -5.361      2.873      3.758
REMARK INTER + INTRA:          -5.849
REMARK INTER:                  -5.822
REMARK INTRA:                  -0.026
REMARK UNBOUND:                -0.018
REMARK SMILES O=C(O)c1ccccc1
REMARK SMILES IDX 2 1 1 2 3 3 4 5 5 6 9 7 6 8 8 9 7 10
REMARK H PARENT 3 4
ROOT
ATOM      1  C   UNL     1     -30.694  10.399   7.283  1.00  0.00    +0.335 C 
ATOM      2  O   UNL     1     -31.067   9.240   7.262  1.00  0.00    -0.246 OA
ENDROOT
BRANCH   1   3
ATOM      3  O   UNL     1     -31.376  11.337   7.964  1.00  0.00    -0.478 OA
ATOM      4  H   UNL     1     -32.247  11.363   7.517  1.00  0.00    +0.297 HD
ENDBRANCH   1   3
BRANCH   1   5
ATOM      5  C   UNL     1     -29.494  10.938   6.601  1.00  0.00    +0.059 A 
ATOM      6  C   UNL     1     -28.291  10.221   6.532  1.00  0.00    +0.015 A 
ATOM      7  C   UNL     1     -29.579  12.206   6.011  1.00  0.00    +0.015 A 
ATOM      8  C   UNL     1     -27.186  10.771   5.878  1.00  0.00    +0.001 A 
ATOM      9  C   UNL     1     -28.471  12.751   5.359  1.00  0.00    +0.001 A 
ATOM     10  C   UNL     1     -27.277  12.034   5.293  1.00  0.00    +0.000 A 
ENDBRANCH   1   5
TORSDOF 2
ENDMDL
MODEL 5
REMARK VINA RESULT:    -5.226      2.405      3.198
REMARK INTER + INTRA:          -5.703
REMARK INTER:                  -5.673
REMARK INTRA:                  -0.030
REMARK UNBOUND:                -0.018
REMARK SMILES O=C(O)c1ccccc1
REMARK SMILES IDX 2 1 1 2 3 3 4 5 5 6 9 7 6 8 8 9 7 10
REMARK H PARENT 3 4
ROOT
ATOM      1  C   UNL     1     -29.458   8.302   7.345  1.00  0.00    +0.335 C 
ATOM      2  O   UNL     1     -30.501   7.691   7.494  1.00  0.00    -0.246 OA
ENDROOT
BRANCH   1   3
ATOM      3  O   UNL     1     -28.275   7.746   7.662  1.00  0.00    -0.478 OA
ATOM      4  H   UNL     1     -28.458   6.784   7.648  1.00  0.00    +0.297 HD
ENDBRANCH   1   3
BRANCH   1   5
ATOM      5  C   UNL     1     -29.326   9.681   6.818  1.00  0.00    +0.059 A 
ATOM      6  C   UNL     1     -30.396  10.587   6.828  1.00  0.00    +0.015 A 
ATOM      7  C   UNL     1     -28.088  10.077   6.297  1.00  0.00    +0.015 A 
ATOM      8  C   UNL     1     -30.224  11.877   6.320  1.00  0.00    +0.001 A 
ATOM      9  C   UNL     1     -27.921  11.367   5.789  1.00  0.00    +0.001 A 
ATOM     10  C   UNL     1     -28.988  12.265   5.801  1.00  0.00    +0.000 A 
ENDBRANCH   1   5
TORSDOF 2
ENDMDL
MODEL 6
REMARK VINA RESULT:    -5.140      2.506      3.487
REMARK INTER + INTRA:          -5.609
REMARK INTER:                  -5.582
REMARK INTRA:                  -0.027
REMARK UNBOUND:                -0.018
REMARK SMILES O=C(O)c1ccccc1
REMARK SMILES IDX 2 1 1 2 3 3 4 5 5 6 9 7 6 8 8 9 7 10
REMARK H PARENT 3 4
ROOT
ATOM      1  C   UNL     1     -28.693   8.077   7.697  1.00  0.00    +0.335 C 
ATOM      2  O   UNL     1     -29.869   7.779   7.604  1.00  0.00    -0.246 OA
ENDROOT
BRANCH   1   3
ATOM      3  O   UNL     1     -27.867   7.404   8.520  1.00  0.00    -0.478 OA
ATOM      4  H   UNL     1     -27.127   7.134   7.937  1.00  0.00    +0.297 HD
ENDBRANCH   1   3
BRANCH   1   5
ATOM      5  C   UNL     1     -28.012   9.169   6.962  1.00  0.00    +0.059 A 
ATOM      6  C   UNL     1     -26.653   9.103   6.622  1.00  0.00    +0.015 A 
ATOM      7  C   UNL     1     -28.762  10.296   6.602  1.00  0.00    +0.015 A 
ATOM      8  C   UNL     1     -26.055  10.158   5.927  1.00  0.00    +0.001 A 
ATOM      9  C   UNL     1     -28.159  11.348   5.910  1.00  0.00    +0.001 A 
ATOM     10  C   UNL     1     -26.808  11.278   5.573  1.00  0.00    +0.000 A 
ENDBRANCH   1   5
TORSDOF 2
ENDMDL
MODEL 7
REMARK VINA RESULT:    -5.068     11.791     12.758
REMARK INTER + INTRA:          -5.530
REMARK INTER:                  -5.499
REMARK INTRA:                  -0.032
REMARK UNBOUND:                -0.018
REMARK SMILES O=C(O)c1ccccc1
REMARK SMILES IDX 2 1 1 2 3 3 4 5 5 6 9 7 6 8 8 9 7 10
REMARK H PARENT 3 4
ROOT
ATOM      1  C   UNL     1     -38.979   5.214  10.149  1.00  0.00    +0.335 C 
ATOM      2  O   UNL     1     -39.482   6.312  10.307  1.00  0.00    -0.246 OA
ENDROOT
BRANCH   1   3
ATOM      3  O   UNL     1     -39.680   4.197   9.615  1.00  0.00    -0.478 OA
ATOM      4  H   UNL     1     -40.574   4.302  10.001  1.00  0.00    +0.297 HD
ENDBRANCH   1   3
BRANCH   1   5
ATOM      5  C   UNL     1     -37.589   4.837  10.500  1.00  0.00    +0.059 A 
ATOM      6  C   UNL     1     -36.715   5.727  11.139  1.00  0.00    +0.015 A 
ATOM      7  C   UNL     1     -37.149   3.547  10.176  1.00  0.00    +0.015 A 
ATOM      8  C   UNL     1     -35.414   5.326  11.450  1.00  0.00    +0.001 A 
ATOM      9  C   UNL     1     -35.848   3.152  10.488  1.00  0.00    +0.001 A 
ATOM     10  C   UNL     1     -34.981   4.041  11.124  1.00  0.00    +0.000 A 
ENDBRANCH   1   5
TORSDOF 2
ENDMDL
MODEL 8
REMARK VINA RESULT:    -5.055      1.781      2.783
REMARK INTER + INTRA:          -5.517
REMARK INTER:                  -5.485
REMARK INTRA:                  -0.032
REMARK UNBOUND:                -0.018
REMARK SMILES O=C(O)c1ccccc1
REMARK SMILES IDX 2 1 1 2 3 3 4 5 5 6 9 7 6 8 8 9 7 10
REMARK H PARENT 3 4
ROOT
ATOM      1  C   UNL     1     -28.042   9.871   6.360  1.00  0.00    +0.335 C 
ATOM      2  O   UNL     1     -27.174  10.688   6.113  1.00  0.00    -0.246 OA
ENDROOT
BRANCH   1   3
ATOM      3  O   UNL     1     -27.845   8.558   6.145  1.00  0.00    -0.478 OA
ATOM      4  H   UNL     1     -27.624   8.509   5.191  1.00  0.00    +0.297 HD
ENDBRANCH   1   3
BRANCH   1   5
ATOM      5  C   UNL     1     -29.386  10.171   6.909  1.00  0.00    +0.059 A 
ATOM      6  C   UNL     1     -29.769  11.470   7.273  1.00  0.00    +0.015 A 
ATOM      7  C   UNL     1     -30.291   9.113   7.065  1.00  0.00    +0.015 A 
ATOM      8  C   UNL     1     -31.047  11.703   7.786  1.00  0.00    +0.001 A 
ATOM      9  C   UNL     1     -31.566   9.352   7.580  1.00  0.00    +0.001 A 
ATOM     10  C   UNL     1     -31.943  10.645   7.940  1.00  0.00    +0.000 A 
ENDBRANCH   1   5
TORSDOF 2
ENDMDL
MODEL 9
REMARK VINA RESULT:    -4.939      5.035      6.085
REMARK INTER + INTRA:          -5.390
REMARK INTER:                  -5.371
REMARK INTRA:                  -0.019
REMARK UNBOUND:                -0.018
REMARK SMILES O=C(O)c1ccccc1
REMARK SMILES IDX 2 1 1 2 3 3 4 5 5 6 9 7 6 8 8 9 7 10
REMARK H PARENT 3 4
ROOT
ATOM      1  C   UNL     1     -26.867   4.579   9.131  1.00  0.00    +0.335 C 
ATOM      2  O   UNL     1     -26.392   4.349  10.228  1.00  0.00    -0.246 OA
ENDROOT
BRANCH   1   3
ATOM      3  O   UNL     1     -27.710   3.712   8.541  1.00  0.00    -0.478 OA
ATOM      4  H   UNL     1     -27.326   2.835   8.749  1.00  0.00    +0.297 HD
ENDBRANCH   1   3
BRANCH   1   5
ATOM      5  C   UNL     1     -26.609   5.785   8.308  1.00  0.00    +0.059 A 
ATOM      6  C   UNL     1     -27.591   6.762   8.093  1.00  0.00    +0.015 A 
ATOM      7  C   UNL     1     -25.341   5.939   7.734  1.00  0.00    +0.015 A 
ATOM      8  C   UNL     1     -27.302   7.882   7.310  1.00  0.00    +0.001 A 
ATOM      9  C   UNL     1     -25.057   7.060   6.952  1.00  0.00    +0.001 A 
ATOM     10  C   UNL     1     -26.037   8.029   6.740  1.00  0.00    +0.000 A 
ENDBRANCH   1   5
TORSDOF 2
ENDMDL
