REMARK SMILES O=C(O)c1ccccc1
REMARK SMILES IDX 2 1 1 2 3 3 4 5 5 6 9 7 6 8 8 9 7 10
REMARK H PARENT 3 4
ROOT
ATOM      1  C   UNL     1       2.048  -0.459   0.083  1.00  0.00    +0.335 C 
ATOM      2  O   UNL     1       2.552  -1.562   0.188  1.00  0.00    -0.246 OA
ENDROOT
BRANCH   1   3
ATOM      3  O   UNL     1       2.807   0.649   0.004  1.00  0.00    -0.478 OA
ATOM      4  H   UNL     1       3.724   0.307   0.052  1.00  0.00    +0.297 HD
ENDBRANCH   1   3
BRANCH   1   5
ATOM      5  C   UNL     1       0.595  -0.169   0.027  1.00  0.00    +0.059 A 
ATOM      6  C   UNL     1       0.101   1.137  -0.095  1.00  0.00    +0.015 A 
ATOM      7  C   UNL     1      -0.300  -1.244   0.100  1.00  0.00    +0.015 A 
ATOM      8  C   UNL     1      -1.277   1.361  -0.144  1.00  0.00    +0.001 A 
ATOM      9  C   UNL     1      -1.676  -1.015   0.052  1.00  0.00    +0.001 A 
ATOM     10  C   UNL     1      -2.163   0.286  -0.070  1.00  0.00    +0.000 A 
ENDBRANCH   1   5
TORSDOF 2
