MODEL 1
REMARK VINA RESULT:    -4.538      0.000      0.000
REMARK INTER + INTRA:          -5.444
REMARK INTER:                  -5.334
REMARK INTRA:                  -0.109
REMARK UNBOUND:                -0.109
REMARK SMILES CC(=O)OCCC#N
REMARK SMILES IDX 4 1 2 2 3 3 1 4 5 5 6 6 7 7 8 8
REMARK H PARENT
ROOT
ATOM      1  O   UNL     1     -33.156  -2.257  -0.692  1.00  0.00    -0.465 OA
ENDROOT
BRANCH   1   2
ATOM      2  C   UNL     1     -33.295  -1.343  -1.692  1.00  0.00    +0.302 C 
ATOM      3  O   UNL     1     -32.382  -0.913  -2.381  1.00  0.00    -0.253 OA
ATOM      4  C   UNL     1     -34.732  -0.951  -1.838  1.00  0.00    +0.139 C 
ENDBRANCH   1   2
BRANCH   1   5
ATOM      5  C   UNL     1     -34.290  -2.391   0.185  1.00  0.00    +0.248 C 
BRANCH   5   6
ATOM      6  C   UNL     1     -33.900  -2.117   1.631  1.00  0.00    +0.161 C 
ATOM      7  C   UNL     1     -33.033  -0.940   1.717  1.00  0.00    +0.066 C 
ATOM      8  N   UNL     1     -32.356   0.001   1.778  1.00  0.00    -0.198 NA
ENDBRANCH   5   6
ENDBRANCH   1   5
TORSDOF 3
ENDMDL
MODEL 2
REMARK VINA RESULT:    -4.528      1.766      2.507
REMARK INTER + INTRA:          -5.432
REMARK INTER:                  -5.358
REMARK INTRA:                  -0.074
REMARK UNBOUND:                -0.109
REMARK SMILES CC(=O)OCCC#N
REMARK SMILES IDX 4 1 2 2 3 3 1 4 5 5 6 6 7 7 8 8
REMARK H PARENT
ROOT
ATOM      1  O   UNL     1     -32.828  -0.719   0.225  1.00  0.00    -0.465 OA
ENDROOT
BRANCH   1   2
ATOM      2  C   UNL     1     -33.300  -1.879  -0.309  1.00  0.00    +0.302 C 
ATOM      3  O   UNL     1     -32.896  -2.392  -1.342  1.00  0.00    -0.253 OA
ATOM      4  C   UNL     1     -34.378  -2.447   0.561  1.00  0.00    +0.139 C 
ENDBRANCH   1   2
BRANCH   1   5
ATOM      5  C   UNL     1     -32.818  -0.659   1.663  1.00  0.00    +0.248 C 
BRANCH   5   6
ATOM      6  C   UNL     1     -32.949   0.777   2.152  1.00  0.00    +0.161 C 
ATOM      7  C   UNL     1     -32.707   1.719   1.058  1.00  0.00    +0.066 C 
ATOM      8  N   UNL     1     -32.525   2.459   0.182  1.00  0.00    -0.198 NA
ENDBRANCH   5   6
ENDBRANCH   1   5
TORSDOF 3
ENDMDL
MODEL 3
REMARK VINA RESULT:    -4.447     13.692     14.484
REMARK INTER + INTRA:          -5.337
REMARK INTER:                  -5.194
REMARK INTRA:                  -0.143
REMARK UNBOUND:                -0.109
REMARK SMILES CC(=O)OCCC#N
REMARK SMILES IDX 4 1 2 2 3 3 1 4 5 5 6 6 7 7 8 8
REMARK H PARENT
ROOT
ATOM      1  O   UNL     1     -26.539   9.636   7.339  1.00  0.00    -0.465 OA
ENDROOT
BRANCH   1   2
ATOM      2  C   UNL     1     -25.584   9.879   6.400  1.00  0.00    +0.302 C 
ATOM      3  O   UNL     1     -24.626   9.157   6.170  1.00  0.00    -0.253 OA
ATOM      4  C   UNL     1     -25.887  11.152   5.673  1.00  0.00    +0.139 C 
ENDBRANCH   1   2
BRANCH   1   5
ATOM      5  C   UNL     1     -27.884   9.983   6.958  1.00  0.00    +0.248 C 
BRANCH   5   6
ATOM      6  C   UNL     1     -28.764   8.744   6.871  1.00  0.00    +0.161 C 
ATOM      7  C   UNL     1     -28.362   7.752   7.872  1.00  0.00    +0.066 C 
ATOM      8  N   UNL     1     -28.044   6.978   8.675  1.00  0.00    -0.198 NA
ENDBRANCH   5   6
ENDBRANCH   1   5
TORSDOF 3
ENDMDL
MODEL 4
REMARK VINA RESULT:    -4.438     13.620     14.061
REMARK INTER + INTRA:          -5.326
REMARK INTER:                  -5.162
REMARK INTRA:                  -0.164
REMARK UNBOUND:                -0.109
REMARK SMILES CC(=O)OCCC#N
REMARK SMILES IDX 4 1 2 2 3 3 1 4 5 5 6 6 7 7 8 8
REMARK H PARENT
ROOT
ATOM      1  O   UNL     1     -25.502   8.590   7.182  1.00  0.00    -0.465 OA
ENDROOT
BRANCH   1   2
ATOM      2  C   UNL     1     -25.742   9.455   6.158  1.00  0.00    +0.302 C 
ATOM      3  O   UNL     1     -25.144  10.503   5.970  1.00  0.00    -0.253 OA
ATOM      4  C   UNL     1     -26.835   8.927   5.281  1.00  0.00    +0.139 C 
ENDBRANCH   1   2
BRANCH   1   5
ATOM      5  C   UNL     1     -24.980   7.305   6.797  1.00  0.00    +0.248 C 
BRANCH   5   6
ATOM      6  C   UNL     1     -25.577   6.194   7.651  1.00  0.00    +0.161 C 
ATOM      7  C   UNL     1     -26.912   6.566   8.124  1.00  0.00    +0.066 C 
ATOM      8  N   UNL     1     -27.974   6.864   8.484  1.00  0.00    -0.198 NA
ENDBRANCH   5   6
ENDBRANCH   1   5
TORSDOF 3
ENDMDL
MODEL 5
REMARK VINA RESULT:    -4.363     12.934     13.349
REMARK INTER + INTRA:          -5.238
REMARK INTER:                  -5.098
REMARK INTRA:                  -0.140
REMARK UNBOUND:                -0.109
REMARK SMILES CC(=O)OCCC#N
REMARK SMILES IDX 4 1 2 2 3 3 1 4 5 5 6 6 7 7 8 8
REMARK H PARENT
ROOT
ATOM      1  O   UNL     1     -25.411   4.527   8.562  1.00  0.00    -0.465 OA
ENDROOT
BRANCH   1   2
ATOM      2  C   UNL     1     -26.064   5.670   8.215  1.00  0.00    +0.302 C 
ATOM      3  O   UNL     1     -27.069   6.098   8.762  1.00  0.00    -0.253 OA
ATOM      4  C   UNL     1     -25.361   6.341   7.076  1.00  0.00    +0.139 C 
ENDBRANCH   1   2
BRANCH   1   5
ATOM      5  C   UNL     1     -25.112   4.386   9.963  1.00  0.00    +0.248 C 
BRANCH   5   6
ATOM      6  C   UNL     1     -25.911   3.247  10.582  1.00  0.00    +0.161 C 
ATOM      7  C   UNL     1     -26.004   2.118   9.654  1.00  0.00    +0.066 C 
ATOM      8  N   UNL     1     -26.062   1.223   8.917  1.00  0.00    -0.198 NA
ENDBRANCH   5   6
ENDBRANCH   1   5
TORSDOF 3
ENDMDL
MODEL 6
REMARK VINA RESULT:    -4.337     14.163     15.180
REMARK INTER + INTRA:          -5.207
REMARK INTER:                  -5.105
REMARK INTRA:                  -0.102
REMARK UNBOUND:                -0.109
REMARK SMILES CC(=O)OCCC#N
REMARK SMILES IDX 4 1 2 2 3 3 1 4 5 5 6 6 7 7 8 8
REMARK H PARENT
ROOT
ATOM      1  O   UNL     1     -31.198  11.057   6.535  1.00  0.00    -0.465 OA
ENDROOT
BRANCH   1   2
ATOM      2  C   UNL     1     -31.595  10.192   7.509  1.00  0.00    +0.302 C 
ATOM      3  O   UNL     1     -32.291  10.486   8.469  1.00  0.00    -0.253 OA
ATOM      4  C   UNL     1     -31.068   8.819   7.227  1.00  0.00    +0.139 C 
ENDBRANCH   1   2
BRANCH   1   5
ATOM      5  C   UNL     1     -30.096  11.914   6.881  1.00  0.00    +0.248 C 
BRANCH   5   6
ATOM      6  C   UNL     1     -28.894  11.650   5.984  1.00  0.00    +0.161 C 
ATOM      7  C   UNL     1     -28.374  12.904   5.434  1.00  0.00    +0.066 C 
ATOM      8  N   UNL     1     -27.961  13.902   5.013  1.00  0.00    -0.198 NA
ENDBRANCH   5   6
ENDBRANCH   1   5
TORSDOF 3
ENDMDL
MODEL 7
REMARK VINA RESULT:    -4.317     14.419     14.983
REMARK INTER + INTRA:          -5.183
REMARK INTER:                  -5.003
REMARK INTRA:                  -0.180
REMARK UNBOUND:                -0.109
REMARK SMILES CC(=O)OCCC#N
REMARK SMILES IDX 4 1 2 2 3 3 1 4 5 5 6 6 7 7 8 8
REMARK H PARENT
ROOT
ATOM      1  O   UNL     1     -26.486   9.546   7.333  1.00  0.00    -0.465 OA
ENDROOT
BRANCH   1   2
ATOM      2  C   UNL     1     -25.401   9.569   6.512  1.00  0.00    +0.302 C 
ATOM      3  O   UNL     1     -25.071  10.515   5.812  1.00  0.00    -0.253 OA
ATOM      4  C   UNL     1     -24.657   8.273   6.601  1.00  0.00    +0.139 C 
ENDBRANCH   1   2
BRANCH   1   5
ATOM      5  C   UNL     1     -27.715   9.109   6.723  1.00  0.00    +0.248 C 
BRANCH   5   6
ATOM      6  C   UNL     1     -28.825  10.130   6.936  1.00  0.00    +0.161 C 
ATOM      7  C   UNL     1     -28.602  11.316   6.107  1.00  0.00    +0.066 C 
ATOM      8  N   UNL     1     -28.424  12.247   5.438  1.00  0.00    -0.198 NA
ENDBRANCH   5   6
ENDBRANCH   1   5
TORSDOF 3
ENDMDL
MODEL 8
REMARK VINA RESULT:    -4.279     14.501     15.122
REMARK INTER + INTRA:          -5.139
REMARK INTER:                  -5.031
REMARK INTRA:                  -0.109
REMARK UNBOUND:                -0.109
REMARK SMILES CC(=O)OCCC#N
REMARK SMILES IDX 4 1 2 2 3 3 1 4 5 5 6 6 7 7 8 8
REMARK H PARENT
ROOT
ATOM      1  O   UNL     1     -29.115  11.230   6.346  1.00  0.00    -0.465 OA
ENDROOT
BRANCH   1   2
ATOM      2  C   UNL     1     -30.405  11.583   6.602  1.00  0.00    +0.302 C 
ATOM      3  O   UNL     1     -31.318  11.542   5.791  1.00  0.00    -0.253 OA
ATOM      4  C   UNL     1     -30.549  12.012   8.029  1.00  0.00    +0.139 C 
ENDBRANCH   1   2
BRANCH   1   5
ATOM      5  C   UNL     1     -28.394  12.116   5.470  1.00  0.00    +0.248 C 
BRANCH   5   6
ATOM      6  C   UNL     1     -26.920  11.737   5.401  1.00  0.00    +0.161 C 
ATOM      7  C   UNL     1     -26.763  10.360   4.927  1.00  0.00    +0.066 C 
ATOM      8  N   UNL     1     -26.647   9.273   4.539  1.00  0.00    -0.198 NA
ENDBRANCH   5   6
ENDBRANCH   1   5
TORSDOF 3
ENDMDL
MODEL 9
REMARK VINA RESULT:    -4.091     13.078     13.683
REMARK INTER + INTRA:          -4.918
REMARK INTER:                  -4.782
REMARK INTRA:                  -0.136
REMARK UNBOUND:                -0.109
REMARK SMILES CC(=O)OCCC#N
REMARK SMILES IDX 4 1 2 2 3 3 1 4 5 5 6 6 7 7 8 8
REMARK H PARENT
ROOT
ATOM      1  O   UNL     1     -25.699   3.837   8.803  1.00  0.00    -0.465 OA
ENDROOT
BRANCH   1   2
ATOM      2  C   UNL     1     -25.965   3.438  10.078  1.00  0.00    +0.302 C 
ATOM      3  O   UNL     1     -26.767   3.974  10.828  1.00  0.00    -0.253 OA
ATOM      4  C   UNL     1     -25.146   2.234  10.424  1.00  0.00    +0.139 C 
ENDBRANCH   1   2
BRANCH   1   5
ATOM      5  C   UNL     1     -25.309   5.215   8.656  1.00  0.00    +0.248 C 
BRANCH   5   6
ATOM      6  C   UNL     1     -26.102   5.892   7.545  1.00  0.00    +0.161 C 
ATOM      7  C   UNL     1     -27.239   6.629   8.099  1.00  0.00    +0.066 C 
ATOM      8  N   UNL     1     -28.131   7.221   8.547  1.00  0.00    -0.198 NA
ENDBRANCH   5   6
ENDBRANCH   1   5
TORSDOF 3
ENDMDL
