MODEL 1
REMARK VINA RESULT:    -5.536      0.000      0.000
REMARK INTER + INTRA:          -8.264
REMARK INTER:                  -7.640
REMARK INTRA:                  -0.624
REMARK UNBOUND:                -0.624
REMARK SMILES O=C(O)[C@H](O)[C@H](O)[C@@H](O)CO
REMARK SMILES IDX 6 1 8 2 10 3 11 4 9 6 7 8 4 10 5 11 2 13 1 14 3 15
REMARK H PARENT 11 5 9 7 7 9 5 12 3 16
ROOT
ATOM      1  C   UNL     1     -33.494  -1.917  -0.427  1.00  0.00    +0.185 C 
ENDROOT
BRANCH   1   2
ATOM      2  C   UNL     1     -34.538  -2.196   0.689  1.00  0.00    +0.171 C 
BRANCH   2   3
ATOM      3  C   UNL     1     -34.020  -2.044   2.127  1.00  0.00    +0.190 C 
BRANCH   3   4
ATOM      4  O   UNL     1     -32.924  -1.132   2.164  1.00  0.00    -0.394 OA
ATOM      5  H   UNL     1     -32.894  -0.765   3.068  1.00  0.00    +0.210 HD
ENDBRANCH   3   4
ENDBRANCH   2   3
BRANCH   2   6
ATOM      6  O   UNL     1     -35.194  -3.451   0.514  1.00  0.00    -0.388 OA
ATOM      7  H   UNL     1     -35.672  -3.428  -0.340  1.00  0.00    +0.211 HD
ENDBRANCH   2   6
ENDBRANCH   1   2
BRANCH   1   8
ATOM      8  O   UNL     1     -33.299  -3.025  -1.326  1.00  0.00    -0.387 OA
ATOM      9  H   UNL     1     -32.465  -3.474  -1.066  1.00  0.00    +0.211 HD
ENDBRANCH   1   8
BRANCH   1  10
ATOM     10  C   UNL     1     -33.691  -0.641  -1.260  1.00  0.00    +0.255 C 
BRANCH  10  11
ATOM     11  O   UNL     1     -33.163   0.467  -0.514  1.00  0.00    -0.379 OA
ATOM     12  H   UNL     1     -32.647   0.982  -1.168  1.00  0.00    +0.211 HD
ENDBRANCH  10  11
BRANCH  10  13
ATOM     13  C   UNL     1     -33.007  -0.718  -2.622  1.00  0.00    +0.335 C 
ATOM     14  O   UNL     1     -31.827  -0.534  -2.875  1.00  0.00    -0.249 OA
BRANCH  13  15
ATOM     15  O   UNL     1     -33.865  -0.994  -3.634  1.00  0.00    -0.479 OA
ATOM     16  H   UNL     1     -33.711  -0.238  -4.246  1.00  0.00    +0.296 HD
ENDBRANCH  13  15
ENDBRANCH  10  13
ENDBRANCH   1  10
TORSDOF 9
ENDMDL
MODEL 2
REMARK VINA RESULT:    -5.381      0.993      2.537
REMARK INTER + INTRA:          -8.049
REMARK INTER:                  -7.529
REMARK INTRA:                  -0.520
REMARK UNBOUND:                -0.624
REMARK SMILES O=C(O)[C@H](O)[C@H](O)[C@@H](O)CO
REMARK SMILES IDX 6 1 8 2 10 3 11 4 9 6 7 8 4 10 5 11 2 13 1 14 3 15
REMARK H PARENT 11 5 9 7 7 9 5 12 3 16
ROOT
ATOM      1  C   UNL     1     -33.621  -0.874  -0.179  1.00  0.00    +0.185 C 
ENDROOT
BRANCH   1   2
ATOM      2  C   UNL     1     -32.961  -1.154   1.199  1.00  0.00    +0.171 C 
BRANCH   2   3
ATOM      3  C   UNL     1     -33.873  -1.815   2.243  1.00  0.00    +0.190 C 
BRANCH   3   4
ATOM      4  O   UNL     1     -34.611  -2.882   1.650  1.00  0.00    -0.394 OA
ATOM      5  H   UNL     1     -34.095  -3.697   1.796  1.00  0.00    +0.210 HD
ENDBRANCH   3   4
ENDBRANCH   2   3
BRANCH   2   6
ATOM      6  O   UNL     1     -32.325   0.003   1.739  1.00  0.00    -0.388 OA
ATOM      7  H   UNL     1     -32.325  -0.076   2.715  1.00  0.00    +0.211 HD
ENDBRANCH   2   6
ENDBRANCH   1   2
BRANCH   1   8
ATOM      8  O   UNL     1     -33.352   0.444  -0.691  1.00  0.00    -0.387 OA
ATOM      9  H   UNL     1     -33.593   1.089   0.009  1.00  0.00    +0.211 HD
ENDBRANCH   1   8
BRANCH   1  10
ATOM     10  C   UNL     1     -33.359  -1.896  -1.296  1.00  0.00    +0.255 C 
BRANCH  10  11
ATOM     11  O   UNL     1     -34.404  -2.880  -1.258  1.00  0.00    -0.379 OA
ATOM     12  H   UNL     1     -34.168  -3.518  -1.963  1.00  0.00    +0.211 HD
ENDBRANCH  10  11
BRANCH  10  13
ATOM     13  C   UNL     1     -33.305  -1.253  -2.679  1.00  0.00    +0.335 C 
ATOM     14  O   UNL     1     -34.165  -1.276  -3.545  1.00  0.00    -0.249 OA
BRANCH  13  15
ATOM     15  O   UNL     1     -32.131  -0.624  -2.929  1.00  0.00    -0.479 OA
ATOM     16  H   UNL     1     -31.527  -1.051  -2.278  1.00  0.00    +0.296 HD
ENDBRANCH  13  15
ENDBRANCH  10  13
ENDBRANCH   1  10
TORSDOF 9
ENDMDL
MODEL 3
REMARK VINA RESULT:    -5.377      1.756      4.013
REMARK INTER + INTRA:          -8.045
REMARK INTER:                  -7.328
REMARK INTRA:                  -0.717
REMARK UNBOUND:                -0.624
REMARK SMILES O=C(O)[C@H](O)[C@H](O)[C@@H](O)CO
REMARK SMILES IDX 6 1 8 2 10 3 11 4 9 6 7 8 4 10 5 11 2 13 1 14 3 15
REMARK H PARENT 11 5 9 7 7 9 5 12 3 16
ROOT
ATOM      1  C   UNL     1     -33.158  -1.099   0.275  1.00  0.00    +0.185 C 
ENDROOT
BRANCH   1   2
ATOM      2  C   UNL     1     -33.877  -2.355  -0.289  1.00  0.00    +0.171 C 
BRANCH   2   3
ATOM      3  C   UNL     1     -34.382  -2.232  -1.734  1.00  0.00    +0.190 C 
BRANCH   3   4
ATOM      4  O   UNL     1     -35.372  -1.209  -1.825  1.00  0.00    -0.394 OA
ATOM      5  H   UNL     1     -35.119  -0.514  -1.189  1.00  0.00    +0.210 HD
ENDBRANCH   3   4
ENDBRANCH   2   3
BRANCH   2   6
ATOM      6  O   UNL     1     -34.914  -2.817   0.576  1.00  0.00    -0.388 OA
ATOM      7  H   UNL     1     -35.732  -2.323   0.362  1.00  0.00    +0.211 HD
ENDBRANCH   2   6
ENDBRANCH   1   2
BRANCH   1   8
ATOM      8  O   UNL     1     -33.297   0.068  -0.556  1.00  0.00    -0.387 OA
ATOM      9  H   UNL     1     -33.975   0.646  -0.144  1.00  0.00    +0.211 HD
ENDBRANCH   1   8
BRANCH   1  10
ATOM     10  C   UNL     1     -33.479  -0.707   1.726  1.00  0.00    +0.255 C 
BRANCH  10  11
ATOM     11  O   UNL     1     -33.104  -1.799   2.579  1.00  0.00    -0.379 OA
ATOM     12  H   UNL     1     -33.367  -1.511   3.478  1.00  0.00    +0.211 HD
ENDBRANCH  10  11
BRANCH  10  13
ATOM     13  C   UNL     1     -32.755   0.563   2.164  1.00  0.00    +0.335 C 
ATOM     14  O   UNL     1     -33.109   1.719   1.994  1.00  0.00    -0.249 OA
BRANCH  13  15
ATOM     15  O   UNL     1     -31.573   0.317   2.781  1.00  0.00    -0.479 OA
ATOM     16  H   UNL     1     -31.115   1.186   2.699  1.00  0.00    +0.296 HD
ENDBRANCH  13  15
ENDBRANCH  10  13
ENDBRANCH   1  10
TORSDOF 9
ENDMDL
MODEL 4
REMARK VINA RESULT:    -5.179      2.047      3.077
REMARK INTER + INTRA:          -7.771
REMARK INTER:                  -7.417
REMARK INTRA:                  -0.354
REMARK UNBOUND:                -0.624
REMARK SMILES O=C(O)[C@H](O)[C@H](O)[C@@H](O)CO
REMARK SMILES IDX 6 1 8 2 10 3 11 4 9 6 7 8 4 10 5 11 2 13 1 14 3 15
REMARK H PARENT 11 5 9 7 7 9 5 12 3 16
ROOT
ATOM      1  C   UNL     1     -34.401  -1.955  -2.207  1.00  0.00    +0.185 C 
ENDROOT
BRANCH   1   2
ATOM      2  C   UNL     1     -33.463  -2.339  -1.030  1.00  0.00    +0.171 C 
BRANCH   2   3
ATOM      3  C   UNL     1     -34.123  -2.369   0.356  1.00  0.00    +0.190 C 
BRANCH   3   4
ATOM      4  O   UNL     1     -35.196  -3.308   0.372  1.00  0.00    -0.394 OA
ATOM      5  H   UNL     1     -35.567  -3.328  -0.531  1.00  0.00    +0.210 HD
ENDBRANCH   3   4
ENDBRANCH   2   3
BRANCH   2   6
ATOM      6  O   UNL     1     -32.272  -1.552  -1.010  1.00  0.00    -0.388 OA
ATOM      7  H   UNL     1     -31.924  -1.549  -0.094  1.00  0.00    +0.211 HD
ENDBRANCH   2   6
ENDBRANCH   1   2
BRANCH   1   8
ATOM      8  O   UNL     1     -35.026  -0.668  -2.052  1.00  0.00    -0.387 OA
ATOM      9  H   UNL     1     -34.814  -0.342  -1.150  1.00  0.00    +0.211 HD
ENDBRANCH   1   8
BRANCH   1  10
ATOM     10  C   UNL     1     -33.812  -2.046  -3.623  1.00  0.00    +0.255 C 
BRANCH  10  11
ATOM     11  O   UNL     1     -32.651  -1.204  -3.681  1.00  0.00    -0.379 OA
ATOM     12  H   UNL     1     -32.781  -0.553  -2.960  1.00  0.00    +0.211 HD
ENDBRANCH  10  11
BRANCH  10  13
ATOM     13  C   UNL     1     -33.434  -3.473  -4.012  1.00  0.00    +0.335 C 
ATOM     14  O   UNL     1     -32.395  -3.854  -4.526  1.00  0.00    -0.249 OA
BRANCH  13  15
ATOM     15  O   UNL     1     -34.418  -4.371  -3.761  1.00  0.00    -0.479 OA
ATOM     16  H   UNL     1     -34.035  -5.201  -4.129  1.00  0.00    +0.296 HD
ENDBRANCH  13  15
ENDBRANCH  10  13
ENDBRANCH   1  10
TORSDOF 9
ENDMDL
MODEL 5
REMARK VINA RESULT:    -5.165     12.424     14.116
REMARK INTER + INTRA:          -7.752
REMARK INTER:                  -7.190
REMARK INTRA:                  -0.562
REMARK UNBOUND:                -0.624
REMARK SMILES O=C(O)[C@H](O)[C@H](O)[C@@H](O)CO
REMARK SMILES IDX 6 1 8 2 10 3 11 4 9 6 7 8 4 10 5 11 2 13 1 14 3 15
REMARK H PARENT 11 5 9 7 7 9 5 12 3 16
ROOT
ATOM      1  C   UNL     1     -24.758   1.287  10.176  1.00  0.00    +0.185 C 
ENDROOT
BRANCH   1   2
ATOM      2  C   UNL     1     -26.174   0.802   9.758  1.00  0.00    +0.171 C 
BRANCH   2   3
ATOM      3  C   UNL     1     -26.359  -0.722   9.706  1.00  0.00    +0.190 C 
BRANCH   3   4
ATOM      4  O   UNL     1     -25.476  -1.294   8.743  1.00  0.00    -0.394 OA
ATOM      5  H   UNL     1     -25.996  -1.950   8.240  1.00  0.00    +0.210 HD
ENDBRANCH   3   4
ENDBRANCH   2   3
BRANCH   2   6
ATOM      6  O   UNL     1     -26.617   1.411   8.547  1.00  0.00    -0.388 OA
ATOM      7  H   UNL     1     -26.318   2.343   8.547  1.00  0.00    +0.211 HD
ENDBRANCH   2   6
ENDBRANCH   1   2
BRANCH   1   8
ATOM      8  O   UNL     1     -23.819   1.337   9.086  1.00  0.00    -0.387 OA
ATOM      9  H   UNL     1     -24.260   0.952   8.297  1.00  0.00    +0.211 HD
ENDBRANCH   1   8
BRANCH   1  10
ATOM     10  C   UNL     1     -24.678   2.611  10.952  1.00  0.00    +0.255 C 
BRANCH  10  11
ATOM     11  O   UNL     1     -23.293   2.906  11.193  1.00  0.00    -0.379 OA
ATOM     12  H   UNL     1     -23.044   2.327  11.943  1.00  0.00    +0.211 HD
ENDBRANCH  10  11
BRANCH  10  13
ATOM     13  C   UNL     1     -25.329   3.770  10.203  1.00  0.00    +0.335 C 
ATOM     14  O   UNL     1     -25.166   4.089   9.036  1.00  0.00    -0.249 OA
BRANCH  13  15
ATOM     15  O   UNL     1     -26.150   4.515  10.983  1.00  0.00    -0.479 OA
ATOM     16  H   UNL     1     -26.342   3.897  11.726  1.00  0.00    +0.296 HD
ENDBRANCH  13  15
ENDBRANCH  10  13
ENDBRANCH   1  10
TORSDOF 9
ENDMDL
MODEL 6
REMARK VINA RESULT:    -5.054     12.532     14.477
REMARK INTER + INTRA:          -7.598
REMARK INTER:                  -6.656
REMARK INTRA:                  -0.942
REMARK UNBOUND:                -0.624
REMARK SMILES O=C(O)[C@H](O)[C@H](O)[C@@H](O)CO
REMARK SMILES IDX 6 1 8 2 10 3 11 4 9 6 7 8 4 10 5 11 2 13 1 14 3 15
REMARK H PARENT 11 5 9 7 7 9 5 12 3 16
ROOT
ATOM      1  C   UNL     1     -25.566   1.634  10.961  1.00  0.00    +0.185 C 
ENDROOT
BRANCH   1   2
ATOM      2  C   UNL     1     -26.546   1.085   9.888  1.00  0.00    +0.171 C 
BRANCH   2   3
ATOM      3  C   UNL     1     -26.538  -0.440   9.708  1.00  0.00    +0.190 C 
BRANCH   3   4
ATOM      4  O   UNL     1     -25.368  -0.849   9.002  1.00  0.00    -0.394 OA
ATOM      5  H   UNL     1     -25.040  -0.064   8.523  1.00  0.00    +0.210 HD
ENDBRANCH   3   4
ENDBRANCH   2   3
BRANCH   2   6
ATOM      6  O   UNL     1     -26.397   1.747   8.632  1.00  0.00    -0.388 OA
ATOM      7  H   UNL     1     -26.555   2.704   8.772  1.00  0.00    +0.211 HD
ENDBRANCH   2   6
ENDBRANCH   1   2
BRANCH   1   8
ATOM      8  O   UNL     1     -25.015   0.615  11.816  1.00  0.00    -0.387 OA
ATOM      9  H   UNL     1     -25.708   0.367  12.466  1.00  0.00    +0.211 HD
ENDBRANCH   1   8
BRANCH   1  10
ATOM     10  C   UNL     1     -24.419   2.527  10.463  1.00  0.00    +0.255 C 
BRANCH  10  11
ATOM     11  O   UNL     1     -24.133   3.499  11.480  1.00  0.00    -0.379 OA
ATOM     12  H   UNL     1     -23.987   2.972  12.293  1.00  0.00    +0.211 HD
ENDBRANCH  10  11
BRANCH  10  13
ATOM     13  C   UNL     1     -23.155   1.733  10.138  1.00  0.00    +0.335 C 
ATOM     14  O   UNL     1     -22.186   1.550  10.857  1.00  0.00    -0.249 OA
BRANCH  13  15
ATOM     15  O   UNL     1     -23.155   1.223   8.883  1.00  0.00    -0.479 OA
ATOM     16  H   UNL     1     -22.614   0.407   8.994  1.00  0.00    +0.296 HD
ENDBRANCH  13  15
ENDBRANCH  10  13
ENDBRANCH   1  10
TORSDOF 9
ENDMDL
MODEL 7
REMARK VINA RESULT:    -4.991     11.407     13.011
REMARK INTER + INTRA:          -7.512
REMARK INTER:                  -6.774
REMARK INTRA:                  -0.738
REMARK UNBOUND:                -0.624
REMARK SMILES O=C(O)[C@H](O)[C@H](O)[C@@H](O)CO
REMARK SMILES IDX 6 1 8 2 10 3 11 4 9 6 7 8 4 10 5 11 2 13 1 14 3 15
REMARK H PARENT 11 5 9 7 7 9 5 12 3 16
ROOT
ATOM      1  C   UNL     1     -36.441   5.561   9.686  1.00  0.00    +0.185 C 
ENDROOT
BRANCH   1   2
ATOM      2  C   UNL     1     -35.049   5.286   9.054  1.00  0.00    +0.171 C 
BRANCH   2   3
ATOM      3  C   UNL     1     -34.824   5.902   7.665  1.00  0.00    +0.190 C 
BRANCH   3   4
ATOM      4  O   UNL     1     -34.783   7.325   7.756  1.00  0.00    -0.394 OA
ATOM      5  H   UNL     1     -35.314   7.573   8.537  1.00  0.00    +0.210 HD
ENDBRANCH   3   4
ENDBRANCH   2   3
BRANCH   2   6
ATOM      6  O   UNL     1     -34.720   3.898   9.054  1.00  0.00    -0.388 OA
ATOM      7  H   UNL     1     -33.762   3.811   8.870  1.00  0.00    +0.211 HD
ENDBRANCH   2   6
ENDBRANCH   1   2
BRANCH   1   8
ATOM      8  O   UNL     1     -36.653   6.940  10.040  1.00  0.00    -0.387 OA
ATOM      9  H   UNL     1     -37.210   6.956  10.849  1.00  0.00    +0.211 HD
ENDBRANCH   1   8
BRANCH   1  10
ATOM     10  C   UNL     1     -37.669   5.061   8.910  1.00  0.00    +0.255 C 
BRANCH  10  11
ATOM     11  O   UNL     1     -37.499   3.657   8.657  1.00  0.00    -0.379 OA
ATOM     12  H   UNL     1     -36.618   3.587   8.232  1.00  0.00    +0.211 HD
ENDBRANCH  10  11
BRANCH  10  13
ATOM     13  C   UNL     1     -38.975   5.295   9.663  1.00  0.00    +0.335 C 
ATOM     14  O   UNL     1     -39.288   6.270  10.327  1.00  0.00    -0.249 OA
BRANCH  13  15
ATOM     15  O   UNL     1     -39.836   4.252   9.574  1.00  0.00    -0.479 OA
ATOM     16  H   UNL     1     -39.894   4.117   8.600  1.00  0.00    +0.296 HD
ENDBRANCH  13  15
ENDBRANCH  10  13
ENDBRANCH   1  10
TORSDOF 9
ENDMDL
MODEL 8
REMARK VINA RESULT:    -4.983     12.837     14.707
REMARK INTER + INTRA:          -7.500
REMARK INTER:                  -6.646
REMARK INTRA:                  -0.855
REMARK UNBOUND:                -0.624
REMARK SMILES O=C(O)[C@H](O)[C@H](O)[C@@H](O)CO
REMARK SMILES IDX 6 1 8 2 10 3 11 4 9 6 7 8 4 10 5 11 2 13 1 14 3 15
REMARK H PARENT 11 5 9 7 7 9 5 12 3 16
ROOT
ATOM      1  C   UNL     1     -25.139   1.368  10.496  1.00  0.00    +0.185 C 
ENDROOT
BRANCH   1   2
ATOM      2  C   UNL     1     -23.620   1.150  10.250  1.00  0.00    +0.171 C 
BRANCH   2   3
ATOM      3  C   UNL     1     -22.684   2.011  11.110  1.00  0.00    +0.190 C 
BRANCH   3   4
ATOM      4  O   UNL     1     -23.258   3.299  11.329  1.00  0.00    -0.394 OA
ATOM      5  H   UNL     1     -23.270   3.441  12.295  1.00  0.00    +0.210 HD
ENDBRANCH   3   4
ENDBRANCH   2   3
BRANCH   2   6
ATOM      6  O   UNL     1     -23.278   1.249   8.868  1.00  0.00    -0.388 OA
ATOM      7  H   UNL     1     -23.936   0.738   8.354  1.00  0.00    +0.211 HD
ENDBRANCH   2   6
ENDBRANCH   1   2
BRANCH   1   8
ATOM      8  O   UNL     1     -25.464   1.676  11.864  1.00  0.00    -0.387 OA
ATOM      9  H   UNL     1     -26.293   2.202  11.860  1.00  0.00    +0.211 HD
ENDBRANCH   1   8
BRANCH   1  10
ATOM     10  C   UNL     1     -25.853   2.378   9.584  1.00  0.00    +0.255 C 
BRANCH  10  11
ATOM     11  O   UNL     1     -26.576   1.645   8.583  1.00  0.00    -0.379 OA
ATOM     12  H   UNL     1     -27.413   1.386   9.023  1.00  0.00    +0.211 HD
ENDBRANCH  10  11
BRANCH  10  13
ATOM     13  C   UNL     1     -26.810   3.286  10.352  1.00  0.00    +0.335 C 
ATOM     14  O   UNL     1     -28.009   3.130  10.523  1.00  0.00    -0.249 OA
BRANCH  13  15
ATOM     15  O   UNL     1     -26.210   4.393  10.851  1.00  0.00    -0.479 OA
ATOM     16  H   UNL     1     -26.498   5.088  10.214  1.00  0.00    +0.296 HD
ENDBRANCH  13  15
ENDBRANCH  10  13
ENDBRANCH   1  10
TORSDOF 9
ENDMDL
MODEL 9
REMARK VINA RESULT:    -4.759     13.041     14.825
REMARK INTER + INTRA:          -7.191
REMARK INTER:                  -6.356
REMARK INTRA:                  -0.836
REMARK UNBOUND:                -0.624
REMARK SMILES O=C(O)[C@H](O)[C@H](O)[C@@H](O)CO
REMARK SMILES IDX 6 1 8 2 10 3 11 4 9 6 7 8 4 10 5 11 2 13 1 14 3 15
REMARK H PARENT 11 5 9 7 7 9 5 12 3 16
ROOT
ATOM      1  C   UNL     1     -24.393   2.698  11.464  1.00  0.00    +0.185 C 
ENDROOT
BRANCH   1   2
ATOM      2  C   UNL     1     -23.819   1.255  11.428  1.00  0.00    +0.171 C 
BRANCH   2   3
ATOM      3  C   UNL     1     -22.707   1.014  10.396  1.00  0.00    +0.190 C 
BRANCH   3   4
ATOM      4  O   UNL     1     -23.201   1.234   9.076  1.00  0.00    -0.394 OA
ATOM      5  H   UNL     1     -22.476   1.646   8.569  1.00  0.00    +0.210 HD
ENDBRANCH   3   4
ENDBRANCH   2   3
BRANCH   2   6
ATOM      6  O   UNL     1     -24.844   0.270  11.311  1.00  0.00    -0.388 OA
ATOM      7  H   UNL     1     -24.673  -0.253  10.500  1.00  0.00    +0.211 HD
ENDBRANCH   2   6
ENDBRANCH   1   2
BRANCH   1   8
ATOM      8  O   UNL     1     -23.555   3.670  10.812  1.00  0.00    -0.387 OA
ATOM      9  H   UNL     1     -22.661   3.275  10.718  1.00  0.00    +0.211 HD
ENDBRANCH   1   8
BRANCH   1  10
ATOM     10  C   UNL     1     -25.835   2.886  10.970  1.00  0.00    +0.255 C 
BRANCH  10  11
ATOM     11  O   UNL     1     -26.285   4.186  11.379  1.00  0.00    -0.379 OA
ATOM     12  H   UNL     1     -25.465   4.669  11.612  1.00  0.00    +0.211 HD
ENDBRANCH  10  11
BRANCH  10  13
ATOM     13  C   UNL     1     -25.958   2.751   9.454  1.00  0.00    +0.335 C 
ATOM     14  O   UNL     1     -26.167   1.734   8.811  1.00  0.00    -0.249 OA
BRANCH  13  15
ATOM     15  O   UNL     1     -25.775   3.923   8.798  1.00  0.00    -0.479 OA
ATOM     16  H   UNL     1     -25.880   3.649   7.858  1.00  0.00    +0.296 HD
ENDBRANCH  13  15
ENDBRANCH  10  13
ENDBRANCH   1  10
TORSDOF 9
ENDMDL
