MODEL 1
REMARK VINA RESULT:    -4.466      0.000      0.000
REMARK INTER + INTRA:          -5.674
REMARK INTER:                  -5.510
REMARK INTRA:                  -0.164
REMARK UNBOUND:                -0.164
REMARK SMILES CCOC(=O)CSC#N
REMARK SMILES IDX 4 1 5 2 3 3 2 4 1 5 6 6 7 7 8 8 9 9
REMARK H PARENT
ROOT
ATOM      1  C   UNL     1     -26.612   9.746   5.482  1.00  0.00    +0.316 C 
ATOM      2  O   UNL     1     -26.535   9.363   4.322  1.00  0.00    -0.251 OA
ENDROOT
BRANCH   1   3
ATOM      3  O   UNL     1     -27.744  10.218   6.078  1.00  0.00    -0.465 OA
BRANCH   3   4
ATOM      4  C   UNL     1     -28.051  11.582   5.761  1.00  0.00    +0.229 C 
ATOM      5  C   UNL     1     -29.490  11.848   6.156  1.00  0.00    +0.049 C 
ENDBRANCH   3   4
ENDBRANCH   1   3
BRANCH   1   6
ATOM      6  C   UNL     1     -25.454   9.779   6.445  1.00  0.00    +0.208 C 
BRANCH   6   7
ATOM      7  S   UNL     1     -24.699   8.137   6.539  1.00  0.00    -0.035 SA
ATOM      8  C   UNL     1     -25.975   7.361   7.326  1.00  0.00    +0.133 C 
ATOM      9  N   UNL     1     -26.865   6.858   7.870  1.00  0.00    -0.185 NA
ENDBRANCH   6   7
ENDBRANCH   1   6
TORSDOF 4
ENDMDL
MODEL 2
REMARK VINA RESULT:    -4.457      2.121      2.734
REMARK INTER + INTRA:          -5.663
REMARK INTER:                  -5.538
REMARK INTRA:                  -0.126
REMARK UNBOUND:                -0.164
REMARK SMILES CCOC(=O)CSC#N
REMARK SMILES IDX 4 1 5 2 3 3 2 4 1 5 6 6 7 7 8 8 9 9
REMARK H PARENT
ROOT
ATOM      1  C   UNL     1     -27.945  12.285   5.373  1.00  0.00    +0.316 C 
ATOM      2  O   UNL     1     -28.204  13.418   4.987  1.00  0.00    -0.251 OA
ENDROOT
BRANCH   1   3
ATOM      3  O   UNL     1     -28.833  11.437   5.964  1.00  0.00    -0.465 OA
BRANCH   3   4
ATOM      4  C   UNL     1     -30.119  12.016   6.222  1.00  0.00    +0.229 C 
ATOM      5  C   UNL     1     -30.452  11.800   7.685  1.00  0.00    +0.049 C 
ENDBRANCH   3   4
ENDBRANCH   1   3
BRANCH   1   6
ATOM      6  C   UNL     1     -26.585  11.646   5.279  1.00  0.00    +0.208 C 
BRANCH   6   7
ATOM      7  S   UNL     1     -26.771   9.860   5.050  1.00  0.00    -0.035 SA
ATOM      8  C   UNL     1     -25.834   9.378   6.369  1.00  0.00    +0.133 C 
ATOM      9  N   UNL     1     -25.183   9.079   7.279  1.00  0.00    -0.185 NA
ENDBRANCH   6   7
ENDBRANCH   1   6
TORSDOF 4
ENDMDL
MODEL 3
REMARK VINA RESULT:    -4.410      6.119      7.591
REMARK INTER + INTRA:          -5.604
REMARK INTER:                  -5.357
REMARK INTRA:                  -0.247
REMARK UNBOUND:                -0.164
REMARK SMILES CCOC(=O)CSC#N
REMARK SMILES IDX 4 1 5 2 3 3 2 4 1 5 6 6 7 7 8 8 9 9
REMARK H PARENT
ROOT
ATOM      1  C   UNL     1     -25.919   3.995  11.104  1.00  0.00    +0.316 C 
ATOM      2  O   UNL     1     -26.454   3.919  12.203  1.00  0.00    -0.251 OA
ENDROOT
BRANCH   1   3
ATOM      3  O   UNL     1     -26.506   4.493   9.980  1.00  0.00    -0.465 OA
BRANCH   3   4
ATOM      4  C   UNL     1     -25.585   4.846   8.941  1.00  0.00    +0.229 C 
ATOM      5  C   UNL     1     -26.203   5.957   8.115  1.00  0.00    +0.049 C 
ENDBRANCH   3   4
ENDBRANCH   1   3
BRANCH   1   6
ATOM      6  C   UNL     1     -24.519   3.525  10.807  1.00  0.00    +0.208 C 
BRANCH   6   7
ATOM      7  S   UNL     1     -24.407   1.741  11.098  1.00  0.00    -0.035 SA
ATOM      8  C   UNL     1     -25.312   1.251   9.760  1.00  0.00    +0.133 C 
ATOM      9  N   UNL     1     -25.941   0.945   8.837  1.00  0.00    -0.185 NA
ENDBRANCH   6   7
ENDBRANCH   1   6
TORSDOF 4
ENDMDL
MODEL 4
REMARK VINA RESULT:    -4.390     14.164     14.778
REMARK INTER + INTRA:          -5.580
REMARK INTER:                  -5.478
REMARK INTRA:                  -0.102
REMARK UNBOUND:                -0.164
REMARK SMILES CCOC(=O)CSC#N
REMARK SMILES IDX 4 1 5 2 3 3 2 4 1 5 6 6 7 7 8 8 9 9
REMARK H PARENT
ROOT
ATOM      1  C   UNL     1     -34.522  -2.048  -0.470  1.00  0.00    +0.316 C 
ATOM      2  O   UNL     1     -34.974  -2.905   0.278  1.00  0.00    -0.251 OA
ENDROOT
BRANCH   1   3
ATOM      3  O   UNL     1     -35.040  -1.718  -1.687  1.00  0.00    -0.465 OA
BRANCH   3   4
ATOM      4  C   UNL     1     -34.055  -1.483  -2.702  1.00  0.00    +0.229 C 
ATOM      5  C   UNL     1     -33.909  -2.749  -3.523  1.00  0.00    +0.049 C 
ENDBRANCH   3   4
ENDBRANCH   1   3
BRANCH   1   6
ATOM      6  C   UNL     1     -33.294  -1.227  -0.177  1.00  0.00    +0.208 C 
BRANCH   6   7
ATOM      7  S   UNL     1     -33.186  -0.915   1.603  1.00  0.00    -0.035 SA
ATOM      8  C   UNL     1     -32.864   0.739   1.510  1.00  0.00    +0.133 C 
ATOM      9  N   UNL     1     -32.639   1.871   1.413  1.00  0.00    -0.185 NA
ENDBRANCH   6   7
ENDBRANCH   1   6
TORSDOF 4
ENDMDL
MODEL 5
REMARK VINA RESULT:    -4.370      5.180      6.272
REMARK INTER + INTRA:          -5.556
REMARK INTER:                  -5.408
REMARK INTRA:                  -0.148
REMARK UNBOUND:                -0.164
REMARK SMILES CCOC(=O)CSC#N
REMARK SMILES IDX 4 1 5 2 3 3 2 4 1 5 6 6 7 7 8 8 9 9
REMARK H PARENT
ROOT
ATOM      1  C   UNL     1     -26.019   4.850   9.017  1.00  0.00    +0.316 C 
ATOM      2  O   UNL     1     -27.236   4.935   9.120  1.00  0.00    -0.251 OA
ENDROOT
BRANCH   1   3
ATOM      3  O   UNL     1     -25.306   5.138   7.891  1.00  0.00    -0.465 OA
BRANCH   3   4
ATOM      4  C   UNL     1     -25.838   6.222   7.119  1.00  0.00    +0.229 C 
ATOM      5  C   UNL     1     -24.860   7.379   7.189  1.00  0.00    +0.049 C 
ENDBRANCH   3   4
ENDBRANCH   1   3
BRANCH   1   6
ATOM      6  C   UNL     1     -25.104   4.387  10.119  1.00  0.00    +0.208 C 
BRANCH   6   7
ATOM      7  S   UNL     1     -25.898   3.047  11.041  1.00  0.00    -0.035 SA
ATOM      8  C   UNL     1     -25.884   1.901   9.802  1.00  0.00    +0.133 C 
ATOM      9  N   UNL     1     -25.865   1.137   8.931  1.00  0.00    -0.185 NA
ENDBRANCH   6   7
ENDBRANCH   1   6
TORSDOF 4
ENDMDL
MODEL 6
REMARK VINA RESULT:    -4.185      9.061      9.752
REMARK INTER + INTRA:          -5.327
REMARK INTER:                  -5.081
REMARK INTRA:                  -0.246
REMARK UNBOUND:                -0.164
REMARK SMILES CCOC(=O)CSC#N
REMARK SMILES IDX 4 1 5 2 3 3 2 4 1 5 6 6 7 7 8 8 9 9
REMARK H PARENT
ROOT
ATOM      1  C   UNL     1     -25.267   1.257   9.707  1.00  0.00    +0.316 C 
ATOM      2  O   UNL     1     -26.047   1.074   8.781  1.00  0.00    -0.251 OA
ENDROOT
BRANCH   1   3
ATOM      3  O   UNL     1     -24.113   1.978   9.629  1.00  0.00    -0.465 OA
BRANCH   3   4
ATOM      4  C   UNL     1     -23.258   1.847  10.771  1.00  0.00    +0.229 C 
ATOM      5  C   UNL     1     -21.926   1.292  10.305  1.00  0.00    +0.049 C 
ENDBRANCH   3   4
ENDBRANCH   1   3
BRANCH   1   6
ATOM      6  C   UNL     1     -25.444   0.690  11.091  1.00  0.00    +0.208 C 
BRANCH   6   7
ATOM      7  S   UNL     1     -27.018   1.261  11.781  1.00  0.00    -0.035 SA
ATOM      8  C   UNL     1     -26.587   2.882  11.976  1.00  0.00    +0.133 C 
ATOM      9  N   UNL     1     -26.261   3.986  12.102  1.00  0.00    -0.185 NA
ENDBRANCH   6   7
ENDBRANCH   1   6
TORSDOF 4
ENDMDL
MODEL 7
REMARK VINA RESULT:    -4.112      6.849      8.941
REMARK INTER + INTRA:          -5.237
REMARK INTER:                  -5.063
REMARK INTRA:                  -0.174
REMARK UNBOUND:                -0.164
REMARK SMILES CCOC(=O)CSC#N
REMARK SMILES IDX 4 1 5 2 3 3 2 4 1 5 6 6 7 7 8 8 9 9
REMARK H PARENT
ROOT
ATOM      1  C   UNL     1     -25.638   1.701   9.823  1.00  0.00    +0.316 C 
ATOM      2  O   UNL     1     -25.670   0.960   8.849  1.00  0.00    -0.251 OA
ENDROOT
BRANCH   1   3
ATOM      3  O   UNL     1     -24.924   1.470  10.961  1.00  0.00    -0.465 OA
BRANCH   3   4
ATOM      4  C   UNL     1     -23.724   0.714  10.760  1.00  0.00    +0.229 C 
ATOM      5  C   UNL     1     -22.544   1.663  10.852  1.00  0.00    +0.049 C 
ENDBRANCH   3   4
ENDBRANCH   1   3
BRANCH   1   6
ATOM      6  C   UNL     1     -26.407   2.992   9.933  1.00  0.00    +0.208 C 
BRANCH   6   7
ATOM      7  S   UNL     1     -25.253   4.364  10.180  1.00  0.00    -0.035 SA
ATOM      8  C   UNL     1     -25.342   4.999   8.618  1.00  0.00    +0.133 C 
ATOM      9  N   UNL     1     -25.420   5.408   7.538  1.00  0.00    -0.185 NA
ENDBRANCH   6   7
ENDBRANCH   1   6
TORSDOF 4
ENDMDL
MODEL 8
REMARK VINA RESULT:    -4.009      6.307      7.666
REMARK INTER + INTRA:          -5.111
REMARK INTER:                  -4.932
REMARK INTRA:                  -0.178
REMARK UNBOUND:                -0.164
REMARK SMILES CCOC(=O)CSC#N
REMARK SMILES IDX 4 1 5 2 3 3 2 4 1 5 6 6 7 7 8 8 9 9
REMARK H PARENT
ROOT
ATOM      1  C   UNL     1     -26.171   3.370   9.683  1.00  0.00    +0.316 C 
ATOM      2  O   UNL     1     -26.858   3.993  10.482  1.00  0.00    -0.251 OA
ENDROOT
BRANCH   1   3
ATOM      3  O   UNL     1     -25.300   3.929   8.796  1.00  0.00    -0.465 OA
BRANCH   3   4
ATOM      4  C   UNL     1     -25.331   5.361   8.763  1.00  0.00    +0.229 C 
ATOM      5  C   UNL     1     -25.585   5.797   7.333  1.00  0.00    +0.049 C 
ENDBRANCH   3   4
ENDBRANCH   1   3
BRANCH   1   6
ATOM      6  C   UNL     1     -26.192   1.871   9.532  1.00  0.00    +0.208 C 
BRANCH   6   7
ATOM      7  S   UNL     1     -25.712   1.100  11.098  1.00  0.00    -0.035 SA
ATOM      8  C   UNL     1     -24.127   1.678  11.141  1.00  0.00    +0.133 C 
ATOM      9  N   UNL     1     -23.043   2.087  11.141  1.00  0.00    -0.185 NA
ENDBRANCH   6   7
ENDBRANCH   1   6
TORSDOF 4
ENDMDL
MODEL 9
REMARK VINA RESULT:    -3.962      7.292      9.142
REMARK INTER + INTRA:          -5.053
REMARK INTER:                  -4.852
REMARK INTRA:                  -0.201
REMARK UNBOUND:                -0.164
REMARK SMILES CCOC(=O)CSC#N
REMARK SMILES IDX 4 1 5 2 3 3 2 4 1 5 6 6 7 7 8 8 9 9
REMARK H PARENT
ROOT
ATOM      1  C   UNL     1     -25.197   1.336   9.906  1.00  0.00    +0.316 C 
ATOM      2  O   UNL     1     -25.789   1.167   8.848  1.00  0.00    -0.251 OA
ENDROOT
BRANCH   1   3
ATOM      3  O   UNL     1     -25.264   0.502  10.982  1.00  0.00    -0.465 OA
BRANCH   3   4
ATOM      4  C   UNL     1     -26.598   0.202  11.413  1.00  0.00    +0.229 C 
ATOM      5  C   UNL     1     -26.917   1.075  12.611  1.00  0.00    +0.049 C 
ENDBRANCH   3   4
ENDBRANCH   1   3
BRANCH   1   6
ATOM      6  C   UNL     1     -24.309   2.515  10.205  1.00  0.00    +0.208 C 
BRANCH   6   7
ATOM      7  S   UNL     1     -25.329   3.944  10.644  1.00  0.00    -0.035 SA
ATOM      8  C   UNL     1     -25.373   4.651   9.111  1.00  0.00    +0.133 C 
ATOM      9  N   UNL     1     -25.382   5.115   8.050  1.00  0.00    -0.185 NA
ENDBRANCH   6   7
ENDBRANCH   1   6
TORSDOF 4
ENDMDL
