MODEL 1
REMARK VINA RESULT:    -9.604      0.000      0.000
REMARK INTER + INTRA:         -12.796
REMARK INTER:                 -11.850
REMARK INTRA:                  -0.946
REMARK UNBOUND:                -0.946
REMARK SMILES CCc1nc(Nc2cc(Cl)ccc2Cl)c2cnn(-c3ccccc3)c2n1
REMARK SMILES IDX 3 1 4 2 5 3 15 4 16 5 17 6 18 7 25 8 26 9 2 10 1 11 6 12
REMARK SMILES IDX 7 14 13 15 8 16 12 17 9 18 11 19 14 20 10 21 19 22 20 23
REMARK SMILES IDX 24 24 21 25 23 26 22 27
REMARK H PARENT 6 13
ROOT
ATOM      1  C   UNL     1     -31.811   5.069   9.021  1.00  0.00    +0.133 A 
ATOM      2  N   UNL     1     -30.941   4.059   9.217  1.00  0.00    -0.215 NA
ATOM      3  C   UNL     1     -31.376   2.875   9.711  1.00  0.00    +0.145 A 
ATOM      4  C   UNL     1     -32.737   2.767  10.018  1.00  0.00    +0.082 A 
ATOM      5  C   UNL     1     -33.602   1.786  10.523  1.00  0.00    +0.150 A 
ATOM      6  N   UNL     1     -34.861   2.206  10.636  1.00  0.00    -0.174 NA
ATOM      7  N   UNL     1     -34.838   3.496  10.168  1.00  0.00    -0.215 N 
ATOM      8  C   UNL     1     -33.548   3.866   9.786  1.00  0.00    +0.168 A 
ATOM      9  N   UNL     1     -33.129   5.045   9.284  1.00  0.00    -0.213 NA
ENDROOT
BRANCH   1  10
ATOM     10  C   UNL     1     -31.258   6.332   8.420  1.00  0.00    +0.074 C 
ATOM     11  C   UNL     1     -32.225   6.929   7.410  1.00  0.00    +0.012 C 
ENDBRANCH   1  10
BRANCH   3  12
ATOM     12  N   UNL     1     -30.475   1.815   9.932  1.00  0.00    -0.338 N 
ATOM     13  H   UNL     1     -30.812   0.947   9.535  1.00  0.00    +0.168 HD
BRANCH  12  14
ATOM     14  C   UNL     1     -29.675   1.649  11.086  1.00  0.00    +0.060 A 
ATOM     15  C   UNL     1     -28.367   2.166  11.202  1.00  0.00    +0.064 A 
ATOM     16  C   UNL     1     -30.241   1.013  12.204  1.00  0.00    +0.048 A 
ATOM     17  C   UNL     1     -27.653   2.039  12.400  1.00  0.00    +0.024 A 
ATOM     18  C   UNL     1     -29.521   0.892  13.394  1.00  0.00    +0.043 A 
ATOM     19  C   UNL     1     -28.231   1.404  13.498  1.00  0.00    +0.022 A 
ATOM     20 Cl   UNL     1     -27.538   2.883   9.861  1.00  0.00    -0.082 Cl
ATOM     21 Cl   UNL     1     -30.239   0.108  14.747  1.00  0.00    -0.084 Cl
ENDBRANCH  12  14
ENDBRANCH   3  12
BRANCH   7  22
ATOM     22  C   UNL     1     -36.051   4.252  10.134  1.00  0.00    +0.067 A 
ATOM     23  C   UNL     1     -37.062   3.994   9.199  1.00  0.00    +0.028 A 
ATOM     24  C   UNL     1     -36.238   5.288  11.067  1.00  0.00    +0.028 A 
ATOM     25  C   UNL     1     -38.235   4.757   9.199  1.00  0.00    +0.002 A 
ATOM     26  C   UNL     1     -37.411   6.046  11.061  1.00  0.00    +0.002 A 
ATOM     27  C   UNL     1     -38.409   5.781  10.128  1.00  0.00    +0.000 A 
ENDBRANCH   7  22
TORSDOF 4
ENDMDL
MODEL 2
REMARK VINA RESULT:    -9.561      5.334      7.677
REMARK INTER + INTRA:         -12.742
REMARK INTER:                 -12.317
REMARK INTRA:                  -0.425
REMARK UNBOUND:                -0.946
REMARK SMILES CCc1nc(Nc2cc(Cl)ccc2Cl)c2cnn(-c3ccccc3)c2n1
REMARK SMILES IDX 3 1 4 2 5 3 15 4 16 5 17 6 18 7 25 8 26 9 2 10 1 11 6 12
REMARK SMILES IDX 7 14 13 15 8 16 12 17 9 18 11 19 14 20 10 21 19 22 20 23
REMARK SMILES IDX 24 24 21 25 23 26 22 27
REMARK H PARENT 6 13
ROOT
ATOM      1  C   UNL     1     -24.291   2.461  10.836  1.00  0.00    +0.133 A 
ATOM      2  N   UNL     1     -24.979   1.441  11.387  1.00  0.00    -0.215 NA
ATOM      3  C   UNL     1     -26.317   1.342  11.191  1.00  0.00    +0.145 A 
ATOM      4  C   UNL     1     -26.931   2.340  10.425  1.00  0.00    +0.082 A 
ATOM      5  C   UNL     1     -28.224   2.639   9.974  1.00  0.00    +0.150 A 
ATOM      6  N   UNL     1     -28.280   3.756   9.250  1.00  0.00    -0.174 NA
ATOM      7  N   UNL     1     -26.983   4.198   9.195  1.00  0.00    -0.215 N 
ATOM      8  C   UNL     1     -26.135   3.350   9.910  1.00  0.00    +0.168 A 
ATOM      9  N   UNL     1     -24.803   3.453  10.088  1.00  0.00    -0.213 NA
ENDROOT
BRANCH   1  10
ATOM     10  C   UNL     1     -22.803   2.470  11.058  1.00  0.00    +0.074 C 
ATOM     11  C   UNL     1     -22.187   1.128  10.698  1.00  0.00    +0.012 C 
ENDBRANCH   1  10
BRANCH   3  12
ATOM     12  N   UNL     1     -27.050   0.288  11.769  1.00  0.00    -0.338 N 
ATOM     13  H   UNL     1     -26.951  -0.571  11.242  1.00  0.00    +0.168 HD
BRANCH  12  14
ATOM     14  C   UNL     1     -28.294   0.422  12.426  1.00  0.00    +0.060 A 
ATOM     15  C   UNL     1     -29.520   0.022  11.851  1.00  0.00    +0.064 A 
ATOM     16  C   UNL     1     -28.304   0.896  13.749  1.00  0.00    +0.048 A 
ATOM     17  C   UNL     1     -30.712   0.106  12.581  1.00  0.00    +0.024 A 
ATOM     18  C   UNL     1     -29.497   0.975  14.468  1.00  0.00    +0.043 A 
ATOM     19  C   UNL     1     -30.701   0.580  13.892  1.00  0.00    +0.022 A 
ATOM     20 Cl   UNL     1     -29.639  -0.486  10.200  1.00  0.00    -0.082 Cl
ATOM     21 Cl   UNL     1     -29.478   1.560  16.087  1.00  0.00    -0.084 Cl
ENDBRANCH  12  14
ENDBRANCH   3  12
BRANCH   7  22
ATOM     22  C   UNL     1     -26.676   5.389   8.466  1.00  0.00    +0.067 A 
ATOM     23  C   UNL     1     -25.443   5.574   7.829  1.00  0.00    +0.028 A 
ATOM     24  C   UNL     1     -27.642   6.408   8.384  1.00  0.00    +0.028 A 
ATOM     25  C   UNL     1     -25.183   6.756   7.125  1.00  0.00    +0.002 A 
ATOM     26  C   UNL     1     -27.376   7.585   7.680  1.00  0.00    +0.002 A 
ATOM     27  C   UNL     1     -26.147   7.759   7.051  1.00  0.00    +0.000 A 
ENDBRANCH   7  22
TORSDOF 4
ENDMDL
MODEL 3
REMARK VINA RESULT:    -9.332      0.731      2.117
REMARK INTER + INTRA:         -12.461
REMARK INTER:                 -11.591
REMARK INTRA:                  -0.870
REMARK UNBOUND:                -0.946
REMARK SMILES CCc1nc(Nc2cc(Cl)ccc2Cl)c2cnn(-c3ccccc3)c2n1
REMARK SMILES IDX 3 1 4 2 5 3 15 4 16 5 17 6 18 7 25 8 26 9 2 10 1 11 6 12
REMARK SMILES IDX 7 14 13 15 8 16 12 17 9 18 11 19 14 20 10 21 19 22 20 23
REMARK SMILES IDX 24 24 21 25 23 26 22 27
REMARK H PARENT 6 13
ROOT
ATOM      1  C   UNL     1     -32.017   5.016   9.041  1.00  0.00    +0.133 A 
ATOM      2  N   UNL     1     -31.169   3.985   9.229  1.00  0.00    -0.215 NA
ATOM      3  C   UNL     1     -31.629   2.810   9.722  1.00  0.00    +0.145 A 
ATOM      4  C   UNL     1     -32.991   2.734  10.039  1.00  0.00    +0.082 A 
ATOM      5  C   UNL     1     -33.875   1.772  10.546  1.00  0.00    +0.150 A 
ATOM      6  N   UNL     1     -35.123   2.223  10.670  1.00  0.00    -0.174 NA
ATOM      7  N   UNL     1     -35.073   3.512  10.205  1.00  0.00    -0.215 N 
ATOM      8  C   UNL     1     -33.776   3.853   9.816  1.00  0.00    +0.168 A 
ATOM      9  N   UNL     1     -33.333   5.023   9.314  1.00  0.00    -0.213 NA
ENDROOT
BRANCH   1  10
ATOM     10  C   UNL     1     -31.437   6.268   8.440  1.00  0.00    +0.074 C 
ATOM     11  C   UNL     1     -32.297   6.775   7.294  1.00  0.00    +0.012 C 
ENDBRANCH   1  10
BRANCH   3  12
ATOM     12  N   UNL     1     -30.752   1.728   9.934  1.00  0.00    -0.338 N 
ATOM     13  H   UNL     1     -31.194   0.842   9.726  1.00  0.00    +0.168 HD
BRANCH  12  14
ATOM     14  C   UNL     1     -29.770   1.659  10.948  1.00  0.00    +0.060 A 
ATOM     15  C   UNL     1     -29.966   0.983  12.171  1.00  0.00    +0.064 A 
ATOM     16  C   UNL     1     -28.505   2.216  10.691  1.00  0.00    +0.048 A 
ATOM     17  C   UNL     1     -28.927   0.880  13.104  1.00  0.00    +0.024 A 
ATOM     18  C   UNL     1     -27.476   2.107  11.628  1.00  0.00    +0.043 A 
ATOM     19  C   UNL     1     -27.680   1.440  12.832  1.00  0.00    +0.022 A 
ATOM     20 Cl   UNL     1     -31.507   0.343  12.632  1.00  0.00    -0.082 Cl
ATOM     21 Cl   UNL     1     -25.938   2.799  11.286  1.00  0.00    -0.084 Cl
ENDBRANCH  12  14
ENDBRANCH   3  12
BRANCH   7  22
ATOM     22  C   UNL     1     -36.267   4.298  10.181  1.00  0.00    +0.067 A 
ATOM     23  C   UNL     1     -36.463   5.378  11.051  1.00  0.00    +0.028 A 
ATOM     24  C   UNL     1     -37.276   3.980   9.255  1.00  0.00    +0.028 A 
ATOM     25  C   UNL     1     -37.647   6.123  10.995  1.00  0.00    +0.002 A 
ATOM     26  C   UNL     1     -38.456   4.728   9.204  1.00  0.00    +0.002 A 
ATOM     27  C   UNL     1     -38.641   5.798  10.074  1.00  0.00    +0.000 A 
ENDBRANCH   7  22
TORSDOF 4
ENDMDL
MODEL 4
REMARK VINA RESULT:    -9.223      5.149      8.833
REMARK INTER + INTRA:         -12.325
REMARK INTER:                 -12.149
REMARK INTRA:                  -0.176
REMARK UNBOUND:                -0.946
REMARK SMILES CCc1nc(Nc2cc(Cl)ccc2Cl)c2cnn(-c3ccccc3)c2n1
REMARK SMILES IDX 3 1 4 2 5 3 15 4 16 5 17 6 18 7 25 8 26 9 2 10 1 11 6 12
REMARK SMILES IDX 7 14 13 15 8 16 12 17 9 18 11 19 14 20 10 21 19 22 20 23
REMARK SMILES IDX 24 24 21 25 23 26 22 27
REMARK H PARENT 6 13
ROOT
ATOM      1  C   UNL     1     -30.779  10.369   6.613  1.00  0.00    +0.133 A 
ATOM      2  N   UNL     1     -31.990   9.853   6.901  1.00  0.00    -0.215 NA
ATOM      3  C   UNL     1     -32.090   8.607   7.423  1.00  0.00    +0.145 A 
ATOM      4  C   UNL     1     -30.900   7.896   7.622  1.00  0.00    +0.082 A 
ATOM      5  C   UNL     1     -30.525   6.639   8.116  1.00  0.00    +0.150 A 
ATOM      6  N   UNL     1     -29.209   6.437   8.086  1.00  0.00    -0.174 NA
ATOM      7  N   UNL     1     -28.691   7.603   7.584  1.00  0.00    -0.215 N 
ATOM      8  C   UNL     1     -29.707   8.514   7.287  1.00  0.00    +0.168 A 
ATOM      9  N   UNL     1     -29.594   9.757   6.778  1.00  0.00    -0.213 NA
ENDROOT
BRANCH   1  10
ATOM     10  C   UNL     1     -30.752  11.778   6.086  1.00  0.00    +0.074 C 
ATOM     11  C   UNL     1     -29.326  12.249   5.850  1.00  0.00    +0.012 C 
ENDBRANCH   1  10
BRANCH   3  12
ATOM     12  N   UNL     1     -33.350   8.051   7.718  1.00  0.00    -0.338 N 
ATOM     13  H   UNL     1     -33.650   8.280   8.657  1.00  0.00    +0.168 HD
BRANCH  12  14
ATOM     14  C   UNL     1     -33.823   6.805   7.248  1.00  0.00    +0.060 A 
ATOM     15  C   UNL     1     -33.623   6.348   5.928  1.00  0.00    +0.064 A 
ATOM     16  C   UNL     1     -34.447   5.940   8.164  1.00  0.00    +0.048 A 
ATOM     17  C   UNL     1     -34.045   5.070   5.542  1.00  0.00    +0.024 A 
ATOM     18  C   UNL     1     -34.864   4.667   7.770  1.00  0.00    +0.043 A 
ATOM     19  C   UNL     1     -34.664   4.227   6.465  1.00  0.00    +0.022 A 
ATOM     20 Cl   UNL     1     -32.952   7.363   4.695  1.00  0.00    -0.082 Cl
ATOM     21 Cl   UNL     1     -35.626   3.630   8.912  1.00  0.00    -0.084 Cl
ENDBRANCH  12  14
ENDBRANCH   3  12
BRANCH   7  22
ATOM     22  C   UNL     1     -27.275   7.736   7.431  1.00  0.00    +0.067 A 
ATOM     23  C   UNL     1     -26.399   6.670   7.672  1.00  0.00    +0.028 A 
ATOM     24  C   UNL     1     -26.744   8.973   7.025  1.00  0.00    +0.028 A 
ATOM     25  C   UNL     1     -25.019   6.841   7.510  1.00  0.00    +0.002 A 
ATOM     26  C   UNL     1     -25.366   9.137   6.865  1.00  0.00    +0.002 A 
ATOM     27  C   UNL     1     -24.504   8.072   7.108  1.00  0.00    +0.000 A 
ENDBRANCH   7  22
TORSDOF 4
ENDMDL
MODEL 5
REMARK VINA RESULT:    -8.909      3.504      7.446
REMARK INTER + INTRA:         -11.939
REMARK INTER:                 -11.210
REMARK INTRA:                  -0.728
REMARK UNBOUND:                -0.946
REMARK SMILES CCc1nc(Nc2cc(Cl)ccc2Cl)c2cnn(-c3ccccc3)c2n1
REMARK SMILES IDX 3 1 4 2 5 3 15 4 16 5 17 6 18 7 25 8 26 9 2 10 1 11 6 12
REMARK SMILES IDX 7 14 13 15 8 16 12 17 9 18 11 19 14 20 10 21 19 22 20 23
REMARK SMILES IDX 24 24 21 25 23 26 22 27
REMARK H PARENT 6 13
ROOT
ATOM      1  C   UNL     1     -31.866   4.116   9.098  1.00  0.00    +0.133 A 
ATOM      2  N   UNL     1     -33.097   3.587   8.951  1.00  0.00    -0.215 NA
ATOM      3  C   UNL     1     -34.062   4.284   8.303  1.00  0.00    +0.145 A 
ATOM      4  C   UNL     1     -33.726   5.556   7.825  1.00  0.00    +0.082 A 
ATOM      5  C   UNL     1     -34.361   6.591   7.125  1.00  0.00    +0.150 A 
ATOM      6  N   UNL     1     -33.570   7.642   6.913  1.00  0.00    -0.174 NA
ATOM      7  N   UNL     1     -32.366   7.284   7.464  1.00  0.00    -0.215 N 
ATOM      8  C   UNL     1     -32.435   6.012   8.034  1.00  0.00    +0.168 A 
ATOM      9  N   UNL     1     -31.464   5.324   8.666  1.00  0.00    -0.213 NA
ENDROOT
BRANCH   1  10
ATOM     10  C   UNL     1     -30.838   3.258   9.783  1.00  0.00    +0.074 C 
ATOM     11  C   UNL     1     -31.305   1.815   9.880  1.00  0.00    +0.012 C 
ENDBRANCH   1  10
BRANCH   3  12
ATOM     12  N   UNL     1     -35.356   3.748   8.153  1.00  0.00    -0.338 N 
ATOM     13  H   UNL     1     -35.654   3.754   7.186  1.00  0.00    +0.168 HD
BRANCH  12  14
ATOM     14  C   UNL     1     -36.411   3.887   9.083  1.00  0.00    +0.060 A 
ATOM     15  C   UNL     1     -36.630   2.985  10.146  1.00  0.00    +0.064 A 
ATOM     16  C   UNL     1     -37.230   5.026   8.997  1.00  0.00    +0.048 A 
ATOM     17  C   UNL     1     -37.643   3.219  11.084  1.00  0.00    +0.024 A 
ATOM     18  C   UNL     1     -38.238   5.250   9.937  1.00  0.00    +0.043 A 
ATOM     19  C   UNL     1     -38.447   4.353  10.981  1.00  0.00    +0.022 A 
ATOM     20 Cl   UNL     1     -35.744   1.504  10.294  1.00  0.00    -0.082 Cl
ATOM     21 Cl   UNL     1     -39.226   6.653   9.807  1.00  0.00    -0.084 Cl
ENDBRANCH  12  14
ENDBRANCH   3  12
BRANCH   7  22
ATOM     22  C   UNL     1     -31.264   8.194   7.397  1.00  0.00    +0.067 A 
ATOM     23  C   UNL     1     -29.936   7.751   7.357  1.00  0.00    +0.028 A 
ATOM     24  C   UNL     1     -31.520   9.577   7.369  1.00  0.00    +0.028 A 
ATOM     25  C   UNL     1     -28.887   8.674   7.291  1.00  0.00    +0.002 A 
ATOM     26  C   UNL     1     -30.467  10.493   7.304  1.00  0.00    +0.002 A 
ATOM     27  C   UNL     1     -29.152  10.042   7.265  1.00  0.00    +0.000 A 
ENDBRANCH   7  22
TORSDOF 4
ENDMDL
MODEL 6
REMARK VINA RESULT:    -8.827      5.319      7.931
REMARK INTER + INTRA:         -11.837
REMARK INTER:                 -12.123
REMARK INTRA:                   0.286
REMARK UNBOUND:                -0.946
REMARK SMILES CCc1nc(Nc2cc(Cl)ccc2Cl)c2cnn(-c3ccccc3)c2n1
REMARK SMILES IDX 3 1 4 2 5 3 15 4 16 5 17 6 18 7 25 8 26 9 2 10 1 11 6 12
REMARK SMILES IDX 7 14 13 15 8 16 12 17 9 18 11 19 14 20 10 21 19 22 20 23
REMARK SMILES IDX 24 24 21 25 23 26 22 27
REMARK H PARENT 6 13
ROOT
ATOM      1  C   UNL     1     -24.123   1.724  10.170  1.00  0.00    +0.133 A 
ATOM      2  N   UNL     1     -24.782   0.808  10.908  1.00  0.00    -0.215 NA
ATOM      3  C   UNL     1     -26.116   0.932  11.110  1.00  0.00    +0.145 A 
ATOM      4  C   UNL     1     -26.752   2.044  10.545  1.00  0.00    +0.082 A 
ATOM      5  C   UNL     1     -28.052   2.564  10.486  1.00  0.00    +0.150 A 
ATOM      6  N   UNL     1     -28.130   3.701   9.797  1.00  0.00    -0.174 NA
ATOM      7  N   UNL     1     -26.849   3.930   9.362  1.00  0.00    -0.215 N 
ATOM      8  C   UNL     1     -25.983   2.932   9.810  1.00  0.00    +0.168 A 
ATOM      9  N   UNL     1     -24.658   2.813   9.592  1.00  0.00    -0.213 NA
ENDROOT
BRANCH   1  10
ATOM     10  C   UNL     1     -22.654   1.485   9.950  1.00  0.00    +0.074 C 
ATOM     11  C   UNL     1     -22.157   0.315  10.783  1.00  0.00    +0.012 C 
ENDBRANCH   1  10
BRANCH   3  12
ATOM     12  N   UNL     1     -26.814  -0.011  11.889  1.00  0.00    -0.338 N 
ATOM     13  H   UNL     1     -26.326  -0.897  11.930  1.00  0.00    +0.168 HD
BRANCH  12  14
ATOM     14  C   UNL     1     -28.221  -0.123  11.970  1.00  0.00    +0.060 A 
ATOM     15  C   UNL     1     -28.957   0.203  13.130  1.00  0.00    +0.064 A 
ATOM     16  C   UNL     1     -28.929  -0.493  10.814  1.00  0.00    +0.048 A 
ATOM     17  C   UNL     1     -30.356   0.148  13.126  1.00  0.00    +0.024 A 
ATOM     18  C   UNL     1     -30.324  -0.543  10.821  1.00  0.00    +0.043 A 
ATOM     19  C   UNL     1     -31.041  -0.222  11.969  1.00  0.00    +0.022 A 
ATOM     20 Cl   UNL     1     -28.186   0.578  14.634  1.00  0.00    -0.082 Cl
ATOM     21 Cl   UNL     1     -31.166  -0.999   9.390  1.00  0.00    -0.084 Cl
ENDBRANCH  12  14
ENDBRANCH   3  12
BRANCH   7  22
ATOM     22  C   UNL     1     -26.574   5.084   8.563  1.00  0.00    +0.067 A 
ATOM     23  C   UNL     1     -25.348   5.259   7.908  1.00  0.00    +0.028 A 
ATOM     24  C   UNL     1     -27.563   6.074   8.427  1.00  0.00    +0.028 A 
ATOM     25  C   UNL     1     -25.119   6.402   7.134  1.00  0.00    +0.002 A 
ATOM     26  C   UNL     1     -27.328   7.213   7.653  1.00  0.00    +0.002 A 
ATOM     27  C   UNL     1     -26.106   7.377   7.007  1.00  0.00    +0.000 A 
ENDBRANCH   7  22
TORSDOF 4
ENDMDL
MODEL 7
REMARK VINA RESULT:    -8.795      6.152      9.896
REMARK INTER + INTRA:         -11.798
REMARK INTER:                 -11.926
REMARK INTRA:                   0.128
REMARK UNBOUND:                -0.946
REMARK SMILES CCc1nc(Nc2cc(Cl)ccc2Cl)c2cnn(-c3ccccc3)c2n1
REMARK SMILES IDX 3 1 4 2 5 3 15 4 16 5 17 6 18 7 25 8 26 9 2 10 1 11 6 12
REMARK SMILES IDX 7 14 13 15 8 16 12 17 9 18 11 19 14 20 10 21 19 22 20 23
REMARK SMILES IDX 24 24 21 25 23 26 22 27
REMARK H PARENT 6 13
ROOT
ATOM      1  C   UNL     1     -25.846   7.101   7.410  1.00  0.00    +0.133 A 
ATOM      2  N   UNL     1     -27.021   7.743   7.255  1.00  0.00    -0.215 NA
ATOM      3  C   UNL     1     -28.161   7.198   7.745  1.00  0.00    +0.145 A 
ATOM      4  C   UNL     1     -28.059   5.957   8.383  1.00  0.00    +0.082 A 
ATOM      5  C   UNL     1     -28.922   5.053   9.017  1.00  0.00    +0.150 A 
ATOM      6  N   UNL     1     -28.300   3.967   9.473  1.00  0.00    -0.174 NA
ATOM      7  N   UNL     1     -26.981   4.165   9.156  1.00  0.00    -0.215 N 
ATOM      8  C   UNL     1     -26.805   5.376   8.483  1.00  0.00    +0.168 A 
ATOM      9  N   UNL     1     -25.663   5.914   8.011  1.00  0.00    -0.213 NA
ENDROOT
BRANCH   1  10
ATOM     10  C   UNL     1     -24.621   7.798   6.885  1.00  0.00    +0.074 C 
ATOM     11  C   UNL     1     -24.947   9.211   6.428  1.00  0.00    +0.012 C 
ENDBRANCH   1  10
BRANCH   3  12
ATOM     12  N   UNL     1     -29.398   7.852   7.580  1.00  0.00    -0.338 N 
ATOM     13  H   UNL     1     -30.132   7.205   7.322  1.00  0.00    +0.168 HD
BRANCH  12  14
ATOM     14  C   UNL     1     -29.570   9.157   7.063  1.00  0.00    +0.060 A 
ATOM     15  C   UNL     1     -30.792   9.859   7.127  1.00  0.00    +0.064 A 
ATOM     16  C   UNL     1     -28.448   9.820   6.537  1.00  0.00    +0.048 A 
ATOM     17  C   UNL     1     -30.881  11.180   6.669  1.00  0.00    +0.024 A 
ATOM     18  C   UNL     1     -28.547  11.136   6.084  1.00  0.00    +0.043 A 
ATOM     19  C   UNL     1     -29.757  11.820   6.149  1.00  0.00    +0.022 A 
ATOM     20 Cl   UNL     1     -32.257   9.110   7.666  1.00  0.00    -0.082 Cl
ATOM     21 Cl   UNL     1     -27.156  11.923   5.445  1.00  0.00    -0.084 Cl
ENDBRANCH  12  14
ENDBRANCH   3  12
BRANCH   7  22
ATOM     22  C   UNL     1     -26.013   3.178   9.522  1.00  0.00    +0.067 A 
ATOM     23  C   UNL     1     -24.827   3.512  10.188  1.00  0.00    +0.028 A 
ATOM     24  C   UNL     1     -26.258   1.830   9.207  1.00  0.00    +0.028 A 
ATOM     25  C   UNL     1     -23.905   2.515  10.530  1.00  0.00    +0.002 A 
ATOM     26  C   UNL     1     -25.334   0.840   9.551  1.00  0.00    +0.002 A 
ATOM     27  C   UNL     1     -24.159   1.182  10.212  1.00  0.00    +0.000 A 
ENDBRANCH   7  22
TORSDOF 4
ENDMDL
MODEL 8
REMARK VINA RESULT:    -8.704      2.291      3.506
REMARK INTER + INTRA:         -11.685
REMARK INTER:                 -11.457
REMARK INTRA:                  -0.228
REMARK UNBOUND:                -0.946
REMARK SMILES CCc1nc(Nc2cc(Cl)ccc2Cl)c2cnn(-c3ccccc3)c2n1
REMARK SMILES IDX 3 1 4 2 5 3 15 4 16 5 17 6 18 7 25 8 26 9 2 10 1 11 6 12
REMARK SMILES IDX 7 14 13 15 8 16 12 17 9 18 11 19 14 20 10 21 19 22 20 23
REMARK SMILES IDX 24 24 21 25 23 26 22 27
REMARK H PARENT 6 13
ROOT
ATOM      1  C   UNL     1     -31.216   6.096   8.544  1.00  0.00    +0.133 A 
ATOM      2  N   UNL     1     -30.109   5.345   8.710  1.00  0.00    -0.215 NA
ATOM      3  C   UNL     1     -30.209   4.088   9.204  1.00  0.00    +0.145 A 
ATOM      4  C   UNL     1     -31.488   3.630   9.544  1.00  0.00    +0.082 A 
ATOM      5  C   UNL     1     -32.056   2.458  10.062  1.00  0.00    +0.150 A 
ATOM      6  N   UNL     1     -33.378   2.538  10.210  1.00  0.00    -0.174 NA
ATOM      7  N   UNL     1     -33.702   3.790   9.753  1.00  0.00    -0.215 N 
ATOM      8  C   UNL     1     -32.561   4.483   9.342  1.00  0.00    +0.168 A 
ATOM      9  N   UNL     1     -32.475   5.731   8.840  1.00  0.00    -0.213 NA
ENDROOT
BRANCH   1  10
ATOM     10  C   UNL     1     -31.024   7.461   7.941  1.00  0.00    +0.074 C 
ATOM     11  C   UNL     1     -29.553   7.744   7.683  1.00  0.00    +0.012 C 
ENDBRANCH   1  10
BRANCH   3  12
ATOM     12  N   UNL     1     -29.060   3.297   9.394  1.00  0.00    -0.338 N 
ATOM     13  H   UNL     1     -29.256   2.480   9.959  1.00  0.00    +0.168 HD
BRANCH  12  14
ATOM     14  C   UNL     1     -27.742   3.790   9.530  1.00  0.00    +0.060 A 
ATOM     15  C   UNL     1     -26.901   3.461  10.615  1.00  0.00    +0.064 A 
ATOM     16  C   UNL     1     -27.213   4.576   8.493  1.00  0.00    +0.048 A 
ATOM     17  C   UNL     1     -25.577   3.916  10.656  1.00  0.00    +0.024 A 
ATOM     18  C   UNL     1     -25.891   5.024   8.542  1.00  0.00    +0.043 A 
ATOM     19  C   UNL     1     -25.071   4.696   9.617  1.00  0.00    +0.022 A 
ATOM     20 Cl   UNL     1     -27.476   2.580  11.991  1.00  0.00    -0.082 Cl
ATOM     21 Cl   UNL     1     -25.270   5.985   7.257  1.00  0.00    -0.084 Cl
ENDBRANCH  12  14
ENDBRANCH   3  12
BRANCH   7  22
ATOM     22  C   UNL     1     -35.069   4.208   9.755  1.00  0.00    +0.067 A 
ATOM     23  C   UNL     1     -35.571   5.113   8.812  1.00  0.00    +0.028 A 
ATOM     24  C   UNL     1     -35.940   3.693  10.732  1.00  0.00    +0.028 A 
ATOM     25  C   UNL     1     -36.917   5.496   8.848  1.00  0.00    +0.002 A 
ATOM     26  C   UNL     1     -37.283   4.079  10.762  1.00  0.00    +0.002 A 
ATOM     27  C   UNL     1     -37.771   4.980   9.821  1.00  0.00    +0.000 A 
ENDBRANCH   7  22
TORSDOF 4
ENDMDL
MODEL 9
REMARK VINA RESULT:    -8.484      4.179      7.463
REMARK INTER + INTRA:         -11.414
REMARK INTER:                 -10.486
REMARK INTRA:                  -0.929
REMARK UNBOUND:                -0.946
REMARK SMILES CCc1nc(Nc2cc(Cl)ccc2Cl)c2cnn(-c3ccccc3)c2n1
REMARK SMILES IDX 3 1 4 2 5 3 15 4 16 5 17 6 18 7 25 8 26 9 2 10 1 11 6 12
REMARK SMILES IDX 7 14 13 15 8 16 12 17 9 18 11 19 14 20 10 21 19 22 20 23
REMARK SMILES IDX 24 24 21 25 23 26 22 27
REMARK H PARENT 6 13
ROOT
ATOM      1  C   UNL     1     -30.587   1.009  11.031  1.00  0.00    +0.133 A 
ATOM      2  N   UNL     1     -29.519   1.373  10.293  1.00  0.00    -0.215 NA
ATOM      3  C   UNL     1     -28.386   0.629  10.328  1.00  0.00    +0.145 A 
ATOM      4  C   UNL     1     -28.378  -0.493  11.164  1.00  0.00    +0.082 A 
ATOM      5  C   UNL     1     -27.479  -1.512  11.508  1.00  0.00    +0.150 A 
ATOM      6  N   UNL     1     -27.978  -2.373  12.393  1.00  0.00    -0.174 NA
ATOM      7  N   UNL     1     -29.255  -1.930  12.626  1.00  0.00    -0.215 N 
ATOM      8  C   UNL     1     -29.525  -0.776  11.888  1.00  0.00    +0.168 A 
ATOM      9  N   UNL     1     -30.661  -0.051  11.853  1.00  0.00    -0.213 NA
ENDROOT
BRANCH   1  10
ATOM     10  C   UNL     1     -31.822   1.858  10.896  1.00  0.00    +0.074 C 
ATOM     11  C   UNL     1     -31.759   2.724   9.649  1.00  0.00    +0.012 C 
ENDBRANCH   1  10
BRANCH   3  12
ATOM     12  N   UNL     1     -27.259   1.004   9.571  1.00  0.00    -0.338 N 
ATOM     13  H   UNL     1     -26.709   0.200   9.295  1.00  0.00    +0.168 HD
BRANCH  12  14
ATOM     14  C   UNL     1     -26.503   2.183   9.759  1.00  0.00    +0.060 A 
ATOM     15  C   UNL     1     -25.310   2.225  10.512  1.00  0.00    +0.064 A 
ATOM     16  C   UNL     1     -26.911   3.351   9.094  1.00  0.00    +0.048 A 
ATOM     17  C   UNL     1     -24.561   3.405  10.598  1.00  0.00    +0.024 A 
ATOM     18  C   UNL     1     -26.157   4.522   9.185  1.00  0.00    +0.043 A 
ATOM     19  C   UNL     1     -24.983   4.555   9.931  1.00  0.00    +0.022 A 
ATOM     20 Cl   UNL     1     -24.765   0.875  11.449  1.00  0.00    -0.082 Cl
ATOM     21 Cl   UNL     1     -26.681   5.938   8.358  1.00  0.00    -0.084 Cl
ENDBRANCH  12  14
ENDBRANCH   3  12
BRANCH   7  22
ATOM     22  C   UNL     1     -30.095  -2.648  13.533  1.00  0.00    +0.067 A 
ATOM     23  C   UNL     1     -30.019  -2.464  14.919  1.00  0.00    +0.028 A 
ATOM     24  C   UNL     1     -31.028  -3.567  13.020  1.00  0.00    +0.028 A 
ATOM     25  C   UNL     1     -30.860  -3.187  15.773  1.00  0.00    +0.002 A 
ATOM     26  C   UNL     1     -31.865  -4.285  13.878  1.00  0.00    +0.002 A 
ATOM     27  C   UNL     1     -31.781  -4.095  15.254  1.00  0.00    +0.000 A 
ENDBRANCH   7  22
TORSDOF 4
ENDMDL
