MODEL 1
REMARK VINA RESULT:    -6.057      0.000      0.000
REMARK INTER + INTRA:         -10.200
REMARK INTER:                  -9.066
REMARK INTRA:                  -1.134
REMARK UNBOUND:                -1.134
REMARK SMILES CCCCCCCCC(C)(C)C(=O)O
REMARK SMILES IDX 6 1 5 2 4 3 3 4 2 5 1 6 7 7 8 8 9 9 10 10 11 11 12 12 13 13
REMARK SMILES IDX 14 14
REMARK H PARENT 14 15
ROOT
ATOM      1  C   UNL     1     -29.845  11.564   6.943  1.00  0.00    +0.000 C 
ENDROOT
BRANCH   1   2
ATOM      2  C   UNL     1     -31.121  10.827   6.530  1.00  0.00    +0.000 C 
BRANCH   2   3
ATOM      3  C   UNL     1     -31.785  10.067   7.682  1.00  0.00    -0.000 C 
BRANCH   3   4
ATOM      4  C   UNL     1     -31.685   8.546   7.545  1.00  0.00    -0.000 C 
BRANCH   4   5
ATOM      5  C   UNL     1     -31.126   8.151   6.177  1.00  0.00    -0.003 C 
ATOM      6  C   UNL     1     -32.170   7.434   5.336  1.00  0.00    +0.004 C 
ENDBRANCH   4   5
ENDBRANCH   3   4
ENDBRANCH   2   3
ENDBRANCH   1   2
BRANCH   1   7
ATOM      7  C   UNL     1     -28.607  10.930   6.299  1.00  0.00    +0.001 C 
BRANCH   7   8
ATOM      8  C   UNL     1     -27.827  10.084   7.316  1.00  0.00    +0.018 C 
BRANCH   8   9
ATOM      9  C   UNL     1     -27.084   8.860   6.717  1.00  0.00    +0.062 C 
ATOM     10  C   UNL     1     -27.435   8.754   5.223  1.00  0.00    +0.023 C 
ATOM     11  C   UNL     1     -27.507   7.564   7.427  1.00  0.00    +0.023 C 
BRANCH   9  12
ATOM     12  C   UNL     1     -25.576   9.078   6.802  1.00  0.00    +0.309 C 
ATOM     13  O   UNL     1     -24.801   8.504   7.550  1.00  0.00    -0.252 OA
BRANCH  12  14
ATOM     14  O   UNL     1     -25.119  10.050   5.990  1.00  0.00    -0.481 OA
ATOM     15  H   UNL     1     -25.825  10.729   6.018  1.00  0.00    +0.296 HD
ENDBRANCH  12  14
ENDBRANCH   9  12
ENDBRANCH   8   9
ENDBRANCH   7   8
ENDBRANCH   1   7
TORSDOF 9
ENDMDL
MODEL 2
REMARK VINA RESULT:    -5.872      1.061      2.627
REMARK INTER + INTRA:          -9.924
REMARK INTER:                  -8.785
REMARK INTRA:                  -1.138
REMARK UNBOUND:                -1.134
REMARK SMILES CCCCCCCCC(C)(C)C(=O)O
REMARK SMILES IDX 6 1 5 2 4 3 3 4 2 5 1 6 7 7 8 8 9 9 10 10 11 11 12 12 13 13
REMARK SMILES IDX 14 14
REMARK H PARENT 14 15
ROOT
ATOM      1  C   UNL     1     -29.949   7.919   7.713  1.00  0.00    +0.000 C 
ENDROOT
BRANCH   1   2
ATOM      2  C   UNL     1     -30.722   8.099   6.404  1.00  0.00    +0.000 C 
BRANCH   2   3
ATOM      3  C   UNL     1     -31.737   9.245   6.449  1.00  0.00    -0.000 C 
BRANCH   3   4
ATOM      4  C   UNL     1     -31.807   9.942   7.809  1.00  0.00    -0.000 C 
BRANCH   4   5
ATOM      5  C   UNL     1     -31.322  11.389   7.715  1.00  0.00    -0.003 C 
ATOM      6  C   UNL     1     -31.002  11.776   6.280  1.00  0.00    +0.004 C 
ENDBRANCH   4   5
ENDBRANCH   3   4
ENDBRANCH   2   3
ENDBRANCH   1   2
BRANCH   1   7
ATOM      7  C   UNL     1     -28.441   8.079   7.492  1.00  0.00    +0.001 C 
BRANCH   7   8
ATOM      8  C   UNL     1     -28.062   9.556   7.313  1.00  0.00    +0.018 C 
BRANCH   8   9
ATOM      9  C   UNL     1     -27.223   9.868   6.046  1.00  0.00    +0.062 C 
ATOM     10  C   UNL     1     -27.723  11.189   5.437  1.00  0.00    +0.023 C 
ATOM     11  C   UNL     1     -27.368   8.746   5.005  1.00  0.00    +0.023 C 
BRANCH   9  12
ATOM     12  C   UNL     1     -25.762  10.086   6.433  1.00  0.00    +0.309 C 
ATOM     13  O   UNL     1     -25.012  10.938   5.983  1.00  0.00    -0.252 OA
BRANCH  12  14
ATOM     14  O   UNL     1     -25.291   9.185   7.317  1.00  0.00    -0.481 OA
ATOM     15  H   UNL     1     -25.830   8.385   7.144  1.00  0.00    +0.296 HD
ENDBRANCH  12  14
ENDBRANCH   9  12
ENDBRANCH   8   9
ENDBRANCH   7   8
ENDBRANCH   1   7
TORSDOF 9
ENDMDL
MODEL 3
REMARK VINA RESULT:    -5.762      1.708      2.462
REMARK INTER + INTRA:          -9.759
REMARK INTER:                  -9.218
REMARK INTRA:                  -0.541
REMARK UNBOUND:                -1.134
REMARK SMILES CCCCCCCCC(C)(C)C(=O)O
REMARK SMILES IDX 6 1 5 2 4 3 3 4 2 5 1 6 7 7 8 8 9 9 10 10 11 11 12 12 13 13
REMARK SMILES IDX 14 14
REMARK H PARENT 14 15
ROOT
ATOM      1  C   UNL     1     -29.677   8.045   7.315  1.00  0.00    +0.000 C 
ENDROOT
BRANCH   1   2
ATOM      2  C   UNL     1     -30.561   9.292   7.236  1.00  0.00    +0.000 C 
BRANCH   2   3
ATOM      3  C   UNL     1     -31.811   9.098   6.373  1.00  0.00    -0.000 C 
BRANCH   3   4
ATOM      4  C   UNL     1     -32.484   7.738   6.575  1.00  0.00    -0.000 C 
BRANCH   4   5
ATOM      5  C   UNL     1     -32.571   6.963   5.259  1.00  0.00    -0.003 C 
ATOM      6  C   UNL     1     -33.967   6.406   5.033  1.00  0.00    +0.004 C 
ENDBRANCH   4   5
ENDBRANCH   3   4
ENDBRANCH   2   3
ENDBRANCH   1   2
BRANCH   1   7
ATOM      7  C   UNL     1     -28.222   8.417   7.626  1.00  0.00    +0.001 C 
BRANCH   7   8
ATOM      8  C   UNL     1     -27.887   9.820   7.103  1.00  0.00    +0.018 C 
BRANCH   8   9
ATOM      9  C   UNL     1     -26.717   9.877   6.085  1.00  0.00    +0.062 C 
ATOM     10  C   UNL     1     -26.998   8.872   4.954  1.00  0.00    +0.023 C 
ATOM     11  C   UNL     1     -25.386   9.514   6.762  1.00  0.00    +0.023 C 
BRANCH   9  12
ATOM     12  C   UNL     1     -26.658  11.260   5.440  1.00  0.00    +0.309 C 
ATOM     13  O   UNL     1     -27.587  12.040   5.310  1.00  0.00    -0.252 OA
BRANCH  12  14
ATOM     14  O   UNL     1     -25.451  11.573   4.930  1.00  0.00    -0.481 OA
ATOM     15  H   UNL     1     -24.882  11.671   5.722  1.00  0.00    +0.296 HD
ENDBRANCH  12  14
ENDBRANCH   9  12
ENDBRANCH   8   9
ENDBRANCH   7   8
ENDBRANCH   1   7
TORSDOF 9
ENDMDL
MODEL 4
REMARK VINA RESULT:    -5.559      5.179      7.457
REMARK INTER + INTRA:          -9.455
REMARK INTER:                  -8.771
REMARK INTRA:                  -0.684
REMARK UNBOUND:                -1.134
REMARK SMILES CCCCCCCCC(C)(C)C(=O)O
REMARK SMILES IDX 6 1 5 2 4 3 3 4 2 5 1 6 7 7 8 8 9 9 10 10 11 11 12 12 13 13
REMARK SMILES IDX 14 14
REMARK H PARENT 14 15
ROOT
ATOM      1  C   UNL     1     -32.613   6.924   5.279  1.00  0.00    +0.000 C 
ENDROOT
BRANCH   1   2
ATOM      2  C   UNL     1     -31.858   7.533   6.464  1.00  0.00    +0.000 C 
BRANCH   2   3
ATOM      3  C   UNL     1     -31.797   9.063   6.424  1.00  0.00    -0.000 C 
BRANCH   3   4
ATOM      4  C   UNL     1     -32.046   9.717   7.785  1.00  0.00    -0.000 C 
BRANCH   4   5
ATOM      5  C   UNL     1     -31.584  11.175   7.791  1.00  0.00    -0.003 C 
ATOM      6  C   UNL     1     -30.302  11.355   6.994  1.00  0.00    +0.004 C 
ENDBRANCH   4   5
ENDBRANCH   3   4
ENDBRANCH   2   3
ENDBRANCH   1   2
BRANCH   1   7
ATOM      7  C   UNL     1     -33.992   6.409   5.707  1.00  0.00    +0.001 C 
BRANCH   7   8
ATOM      8  C   UNL     1     -34.197   6.570   7.219  1.00  0.00    +0.018 C 
BRANCH   8   9
ATOM      9  C   UNL     1     -34.411   5.244   7.996  1.00  0.00    +0.062 C 
ATOM     10  C   UNL     1     -33.120   4.910   8.764  1.00  0.00    +0.023 C 
ATOM     11  C   UNL     1     -34.735   4.093   7.031  1.00  0.00    +0.023 C 
BRANCH   9  12
ATOM     12  C   UNL     1     -35.510   5.426   9.040  1.00  0.00    +0.309 C 
ATOM     13  O   UNL     1     -35.939   4.572   9.798  1.00  0.00    -0.252 OA
BRANCH  12  14
ATOM     14  O   UNL     1     -36.065   6.653   9.039  1.00  0.00    -0.481 OA
ATOM     15  H   UNL     1     -36.722   6.611   8.313  1.00  0.00    +0.296 HD
ENDBRANCH  12  14
ENDBRANCH   9  12
ENDBRANCH   8   9
ENDBRANCH   7   8
ENDBRANCH   1   7
TORSDOF 9
ENDMDL
MODEL 5
REMARK VINA RESULT:    -5.433      8.120     10.501
REMARK INTER + INTRA:          -9.267
REMARK INTER:                  -8.134
REMARK INTRA:                  -1.133
REMARK UNBOUND:                -1.134
REMARK SMILES CCCCCCCCC(C)(C)C(=O)O
REMARK SMILES IDX 6 1 5 2 4 3 3 4 2 5 1 6 7 7 8 8 9 9 10 10 11 11 12 12 13 13
REMARK SMILES IDX 14 14
REMARK H PARENT 14 15
ROOT
ATOM      1  C   UNL     1     -34.212   5.159  11.411  1.00  0.00    +0.000 C 
ENDROOT
BRANCH   1   2
ATOM      2  C   UNL     1     -33.934   3.796  10.772  1.00  0.00    +0.000 C 
BRANCH   2   3
ATOM      3  C   UNL     1     -32.975   3.868   9.580  1.00  0.00    -0.000 C 
BRANCH   3   4
ATOM      4  C   UNL     1     -33.494   4.738   8.433  1.00  0.00    -0.000 C 
BRANCH   4   5
ATOM      5  C   UNL     1     -32.516   5.869   8.111  1.00  0.00    -0.003 C 
ATOM      6  C   UNL     1     -31.243   5.755   8.934  1.00  0.00    +0.004 C 
ENDBRANCH   4   5
ENDBRANCH   3   4
ENDBRANCH   2   3
ENDBRANCH   1   2
BRANCH   1   7
ATOM      7  C   UNL     1     -35.711   5.360  11.657  1.00  0.00    +0.001 C 
BRANCH   7   8
ATOM      8  C   UNL     1     -36.452   5.655  10.345  1.00  0.00    +0.018 C 
BRANCH   8   9
ATOM      9  C   UNL     1     -37.497   4.586   9.928  1.00  0.00    +0.062 C 
ATOM     10  C   UNL     1     -37.625   3.554  11.062  1.00  0.00    +0.023 C 
ATOM     11  C   UNL     1     -37.060   3.868   8.642  1.00  0.00    +0.023 C 
BRANCH   9  12
ATOM     12  C   UNL     1     -38.868   5.236   9.768  1.00  0.00    +0.309 C 
ATOM     13  O   UNL     1     -39.141   6.410   9.960  1.00  0.00    -0.252 OA
BRANCH  12  14
ATOM     14  O   UNL     1     -39.847   4.372   9.437  1.00  0.00    -0.481 OA
ATOM     15  H   UNL     1     -40.441   4.900   8.864  1.00  0.00    +0.296 HD
ENDBRANCH  12  14
ENDBRANCH   9  12
ENDBRANCH   8   9
ENDBRANCH   7   8
ENDBRANCH   1   7
TORSDOF 9
ENDMDL
MODEL 6
REMARK VINA RESULT:    -5.253      7.064      9.650
REMARK INTER + INTRA:          -8.997
REMARK INTER:                  -8.365
REMARK INTRA:                  -0.632
REMARK UNBOUND:                -1.134
REMARK SMILES CCCCCCCCC(C)(C)C(=O)O
REMARK SMILES IDX 6 1 5 2 4 3 3 4 2 5 1 6 7 7 8 8 9 9 10 10 11 11 12 12 13 13
REMARK SMILES IDX 14 14
REMARK H PARENT 14 15
ROOT
ATOM      1  C   UNL     1     -34.531   3.612   7.768  1.00  0.00    +0.000 C 
ENDROOT
BRANCH   1   2
ATOM      2  C   UNL     1     -34.849   5.025   7.276  1.00  0.00    +0.000 C 
BRANCH   2   3
ATOM      3  C   UNL     1     -33.609   5.812   6.842  1.00  0.00    -0.000 C 
BRANCH   3   4
ATOM      4  C   UNL     1     -33.576   6.116   5.342  1.00  0.00    -0.000 C 
BRANCH   4   5
ATOM      5  C   UNL     1     -32.637   7.284   5.035  1.00  0.00    -0.003 C 
ATOM      6  C   UNL     1     -31.807   7.665   6.251  1.00  0.00    +0.004 C 
ENDBRANCH   4   5
ENDBRANCH   3   4
ENDBRANCH   2   3
ENDBRANCH   1   2
BRANCH   1   7
ATOM      7  C   UNL     1     -35.466   3.198   8.910  1.00  0.00    +0.001 C 
BRANCH   7   8
ATOM      8  C   UNL     1     -36.697   4.113   8.973  1.00  0.00    +0.018 C 
BRANCH   8   9
ATOM      9  C   UNL     1     -36.961   4.759  10.360  1.00  0.00    +0.062 C 
ATOM     10  C   UNL     1     -35.629   4.844  11.125  1.00  0.00    +0.023 C 
ATOM     11  C   UNL     1     -37.957   3.917  11.173  1.00  0.00    +0.023 C 
BRANCH   9  12
ATOM     12  C   UNL     1     -37.457   6.192  10.178  1.00  0.00    +0.309 C 
ATOM     13  O   UNL     1     -38.610   6.578  10.278  1.00  0.00    -0.252 OA
BRANCH  12  14
ATOM     14  O   UNL     1     -36.493   7.060   9.815  1.00  0.00    -0.481 OA
ATOM     15  H   UNL     1     -36.049   6.615   9.063  1.00  0.00    +0.296 HD
ENDBRANCH  12  14
ENDBRANCH   9  12
ENDBRANCH   8   9
ENDBRANCH   7   8
ENDBRANCH   1   7
TORSDOF 9
ENDMDL
MODEL 7
REMARK VINA RESULT:    -5.156      6.113      8.346
REMARK INTER + INTRA:          -8.851
REMARK INTER:                  -8.106
REMARK INTRA:                  -0.745
REMARK UNBOUND:                -1.134
REMARK SMILES CCCCCCCCC(C)(C)C(=O)O
REMARK SMILES IDX 6 1 5 2 4 3 3 4 2 5 1 6 7 7 8 8 9 9 10 10 11 11 12 12 13 13
REMARK SMILES IDX 14 14
REMARK H PARENT 14 15
ROOT
ATOM      1  C   UNL     1     -31.699   5.519   9.099  1.00  0.00    +0.000 C 
ENDROOT
BRANCH   1   2
ATOM      2  C   UNL     1     -31.319   6.758   8.285  1.00  0.00    +0.000 C 
BRANCH   2   3
ATOM      3  C   UNL     1     -32.426   7.226   7.336  1.00  0.00    -0.000 C 
BRANCH   3   4
ATOM      4  C   UNL     1     -31.916   7.590   5.940  1.00  0.00    -0.000 C 
BRANCH   4   5
ATOM      5  C   UNL     1     -32.947   7.239   4.866  1.00  0.00    -0.003 C 
ATOM      6  C   UNL     1     -33.824   6.074   5.297  1.00  0.00    +0.004 C 
ENDBRANCH   4   5
ENDBRANCH   3   4
ENDBRANCH   2   3
ENDBRANCH   1   2
BRANCH   1   7
ATOM      7  C   UNL     1     -33.131   5.069   8.787  1.00  0.00    +0.001 C 
BRANCH   7   8
ATOM      8  C   UNL     1     -33.891   4.714  10.072  1.00  0.00    +0.018 C 
BRANCH   8   9
ATOM      9  C   UNL     1     -35.434   4.639   9.921  1.00  0.00    +0.062 C 
ATOM     10  C   UNL     1     -35.940   3.384  10.653  1.00  0.00    +0.023 C 
ATOM     11  C   UNL     1     -35.833   4.555   8.440  1.00  0.00    +0.023 C 
BRANCH   9  12
ATOM     12  C   UNL     1     -36.080   5.840  10.608  1.00  0.00    +0.309 C 
ATOM     13  O   UNL     1     -36.276   5.972  11.805  1.00  0.00    -0.252 OA
BRANCH  12  14
ATOM     14  O   UNL     1     -36.510   6.790   9.755  1.00  0.00    -0.481 OA
ATOM     15  H   UNL     1     -36.215   7.627  10.170  1.00  0.00    +0.296 HD
ENDBRANCH  12  14
ENDBRANCH   9  12
ENDBRANCH   8   9
ENDBRANCH   7   8
ENDBRANCH   1   7
TORSDOF 9
ENDMDL
MODEL 8
REMARK VINA RESULT:    -4.956      6.804      9.184
REMARK INTER + INTRA:          -8.552
REMARK INTER:                  -7.832
REMARK INTRA:                  -0.720
REMARK UNBOUND:                -1.134
REMARK SMILES CCCCCCCCC(C)(C)C(=O)O
REMARK SMILES IDX 6 1 5 2 4 3 3 4 2 5 1 6 7 7 8 8 9 9 10 10 11 11 12 12 13 13
REMARK SMILES IDX 14 14
REMARK H PARENT 14 15
ROOT
ATOM      1  C   UNL     1     -34.712   6.333   6.977  1.00  0.00    +0.000 C 
ENDROOT
BRANCH   1   2
ATOM      2  C   UNL     1     -33.822   5.824   5.841  1.00  0.00    +0.000 C 
BRANCH   2   3
ATOM      3  C   UNL     1     -32.707   6.801   5.456  1.00  0.00    -0.000 C 
BRANCH   3   4
ATOM      4  C   UNL     1     -32.456   7.881   6.510  1.00  0.00    -0.000 C 
BRANCH   4   5
ATOM      5  C   UNL     1     -31.158   7.615   7.275  1.00  0.00    -0.003 C 
ATOM      6  C   UNL     1     -31.360   6.583   8.373  1.00  0.00    +0.004 C 
ENDBRANCH   4   5
ENDBRANCH   3   4
ENDBRANCH   2   3
ENDBRANCH   1   2
BRANCH   1   7
ATOM      7  C   UNL     1     -35.121   5.192   7.915  1.00  0.00    +0.001 C 
BRANCH   7   8
ATOM      8  C   UNL     1     -35.263   5.689   9.361  1.00  0.00    +0.018 C 
BRANCH   8   9
ATOM      9  C   UNL     1     -36.463   5.093  10.143  1.00  0.00    +0.062 C 
ATOM     10  C   UNL     1     -36.623   5.865  11.464  1.00  0.00    +0.023 C 
ATOM     11  C   UNL     1     -36.227   3.606  10.454  1.00  0.00    +0.023 C 
BRANCH   9  12
ATOM     12  C   UNL     1     -37.752   5.301   9.352  1.00  0.00    +0.309 C 
ATOM     13  O   UNL     1     -38.470   4.428   8.892  1.00  0.00    -0.252 OA
BRANCH  12  14
ATOM     14  O   UNL     1     -38.046   6.594   9.119  1.00  0.00    -0.481 OA
ATOM     15  H   UNL     1     -37.214   6.960   8.753  1.00  0.00    +0.296 HD
ENDBRANCH  12  14
ENDBRANCH   9  12
ENDBRANCH   8   9
ENDBRANCH   7   8
ENDBRANCH   1   7
TORSDOF 9
ENDMDL
MODEL 9
REMARK VINA RESULT:    -4.902      5.174      7.170
REMARK INTER + INTRA:          -8.472
REMARK INTER:                  -7.995
REMARK INTRA:                  -0.477
REMARK UNBOUND:                -1.134
REMARK SMILES CCCCCCCCC(C)(C)C(=O)O
REMARK SMILES IDX 6 1 5 2 4 3 3 4 2 5 1 6 7 7 8 8 9 9 10 10 11 11 12 12 13 13
REMARK SMILES IDX 14 14
REMARK H PARENT 14 15
ROOT
ATOM      1  C   UNL     1     -30.625   7.006   7.998  1.00  0.00    +0.000 C 
ENDROOT
BRANCH   1   2
ATOM      2  C   UNL     1     -30.626   8.293   7.169  1.00  0.00    +0.000 C 
BRANCH   2   3
ATOM      3  C   UNL     1     -31.756   9.256   7.545  1.00  0.00    -0.000 C 
BRANCH   3   4
ATOM      4  C   UNL     1     -31.330  10.727   7.530  1.00  0.00    -0.000 C 
BRANCH   4   5
ATOM      5  C   UNL     1     -29.846  10.869   7.187  1.00  0.00    -0.003 C 
ATOM      6  C   UNL     1     -29.600  12.052   6.264  1.00  0.00    +0.004 C 
ENDBRANCH   4   5
ENDBRANCH   3   4
ENDBRANCH   2   3
ENDBRANCH   1   2
BRANCH   1   7
ATOM      7  C   UNL     1     -32.038   6.425   8.121  1.00  0.00    +0.001 C 
BRANCH   7   8
ATOM      8  C   UNL     1     -32.156   5.517   9.353  1.00  0.00    +0.018 C 
BRANCH   8   9
ATOM      9  C   UNL     1     -33.297   4.467   9.285  1.00  0.00    +0.062 C 
ATOM     10  C   UNL     1     -32.681   3.062   9.412  1.00  0.00    +0.023 C 
ATOM     11  C   UNL     1     -34.052   4.567   7.951  1.00  0.00    +0.023 C 
BRANCH   9  12
ATOM     12  C   UNL     1     -34.236   4.645  10.475  1.00  0.00    +0.309 C 
ATOM     13  O   UNL     1     -35.339   4.139  10.611  1.00  0.00    -0.252 OA
BRANCH  12  14
ATOM     14  O   UNL     1     -33.778   5.501  11.409  1.00  0.00    -0.481 OA
ATOM     15  H   UNL     1     -32.997   5.042  11.783  1.00  0.00    +0.296 HD
ENDBRANCH  12  14
ENDBRANCH   9  12
ENDBRANCH   8   9
ENDBRANCH   7   8
ENDBRANCH   1   7
TORSDOF 9
ENDMDL
