MODEL 1
REMARK VINA RESULT:    -9.135      0.000      0.000
REMARK INTER + INTRA:         -10.725
REMARK INTER:                 -10.203
REMARK INTRA:                  -0.522
REMARK UNBOUND:                -0.522
REMARK SMILES Cc1ccc(C(=O)c2ccccc2)c(C)c1
REMARK SMILES IDX 1 1 2 2 16 3 14 4 5 5 4 6 3 7 15 8 6 9 7 10 8 11 9 12 13 13
REMARK SMILES IDX 10 14 12 15 11 16
REMARK H PARENT
ROOT
ATOM      1  C   UNL     1     -26.881  12.217   5.280  1.00  0.00    +0.044 C 
ATOM      2  C   UNL     1     -28.101  11.534   5.828  1.00  0.00    -0.051 A 
ATOM      3  C   UNL     1     -28.001  10.253   6.390  1.00  0.00    +0.007 A 
ATOM      4  C   UNL     1     -29.123   9.609   6.937  1.00  0.00    -0.040 A 
ATOM      5  C   UNL     1     -30.360  10.279   6.914  1.00  0.00    +0.025 A 
ATOM      6  C   UNL     1     -30.465  11.559   6.354  1.00  0.00    +0.013 A 
ATOM      7  C   UNL     1     -29.338  12.187   5.826  1.00  0.00    +0.004 A 
ATOM      8  C   UNL     1     -28.980   8.223   7.502  1.00  0.00    +0.045 C 
ENDROOT
BRANCH   5   9
ATOM      9  C   UNL     1     -31.583   9.640   7.453  1.00  0.00    +0.193 C 
ATOM     10  O   UNL     1     -32.122  10.128   8.442  1.00  0.00    -0.289 OA
BRANCH   9  11
ATOM     11  C   UNL     1     -32.148   8.419   6.815  1.00  0.00    +0.022 A 
ATOM     12  C   UNL     1     -32.644   7.348   7.569  1.00  0.00    +0.012 A 
ATOM     13  C   UNL     1     -32.152   8.340   5.417  1.00  0.00    +0.012 A 
ATOM     14  C   UNL     1     -33.159   6.219   6.926  1.00  0.00    +0.001 A 
ATOM     15  C   UNL     1     -32.667   7.211   4.778  1.00  0.00    +0.001 A 
ATOM     16  C   UNL     1     -33.173   6.153   5.533  1.00  0.00    +0.000 A 
ENDBRANCH   9  11
ENDBRANCH   5   9
TORSDOF 2
ENDMDL
MODEL 2
REMARK VINA RESULT:    -8.943      1.269      2.297
REMARK INTER + INTRA:         -10.511
REMARK INTER:                 -10.024
REMARK INTRA:                  -0.487
REMARK UNBOUND:                -0.522
REMARK SMILES Cc1ccc(C(=O)c2ccccc2)c(C)c1
REMARK SMILES IDX 1 1 2 2 16 3 14 4 5 5 4 6 3 7 15 8 6 9 7 10 8 11 9 12 13 13
REMARK SMILES IDX 10 14 12 15 11 16
REMARK H PARENT
ROOT
ATOM      1  C   UNL     1     -28.176  13.271   5.347  1.00  0.00    +0.044 C 
ATOM      2  C   UNL     1     -28.653  11.951   5.881  1.00  0.00    -0.051 A 
ATOM      3  C   UNL     1     -29.861  11.870   6.590  1.00  0.00    +0.007 A 
ATOM      4  C   UNL     1     -30.342  10.641   7.070  1.00  0.00    -0.040 A 
ATOM      5  C   UNL     1     -29.586   9.482   6.824  1.00  0.00    +0.025 A 
ATOM      6  C   UNL     1     -28.378   9.556   6.116  1.00  0.00    +0.013 A 
ATOM      7  C   UNL     1     -27.923  10.784   5.638  1.00  0.00    +0.004 A 
ATOM      8  C   UNL     1     -31.626  10.603   7.852  1.00  0.00    +0.045 C 
ENDROOT
BRANCH   5   9
ATOM      9  C   UNL     1     -30.029   8.161   7.328  1.00  0.00    +0.193 C 
ATOM     10  O   UNL     1     -29.331   7.572   8.148  1.00  0.00    -0.289 OA
BRANCH   9  11
ATOM     11  C   UNL     1     -31.296   7.548   6.842  1.00  0.00    +0.022 A 
ATOM     12  C   UNL     1     -31.728   7.685   5.517  1.00  0.00    +0.012 A 
ATOM     13  C   UNL     1     -32.085   6.838   7.757  1.00  0.00    +0.012 A 
ATOM     14  C   UNL     1     -32.929   7.097   5.109  1.00  0.00    +0.001 A 
ATOM     15  C   UNL     1     -33.283   6.252   7.345  1.00  0.00    +0.001 A 
ATOM     16  C   UNL     1     -33.702   6.379   6.021  1.00  0.00    +0.000 A 
ENDBRANCH   9  11
ENDBRANCH   5   9
TORSDOF 2
ENDMDL
MODEL 3
REMARK VINA RESULT:    -8.042      1.370      2.771
REMARK INTER + INTRA:          -9.504
REMARK INTER:                  -9.366
REMARK INTRA:                  -0.138
REMARK UNBOUND:                -0.522
REMARK SMILES Cc1ccc(C(=O)c2ccccc2)c(C)c1
REMARK SMILES IDX 1 1 2 2 16 3 14 4 5 5 4 6 3 7 15 8 6 9 7 10 8 11 9 12 13 13
REMARK SMILES IDX 10 14 12 15 11 16
REMARK H PARENT
ROOT
ATOM      1  C   UNL     1     -24.777   8.585   6.561  1.00  0.00    +0.044 C 
ATOM      2  C   UNL     1     -26.252   8.805   6.739  1.00  0.00    -0.051 A 
ATOM      3  C   UNL     1     -26.846   9.996   6.299  1.00  0.00    +0.007 A 
ATOM      4  C   UNL     1     -28.229  10.209   6.426  1.00  0.00    -0.040 A 
ATOM      5  C   UNL     1     -29.014   9.198   7.006  1.00  0.00    +0.025 A 
ATOM      6  C   UNL     1     -28.426   8.005   7.448  1.00  0.00    +0.013 A 
ATOM      7  C   UNL     1     -27.053   7.807   7.303  1.00  0.00    +0.004 A 
ATOM      8  C   UNL     1     -28.822  11.513   5.969  1.00  0.00    +0.045 C 
ENDROOT
BRANCH   5   9
ATOM      9  C   UNL     1     -30.474   9.376   7.190  1.00  0.00    +0.193 C 
ATOM     10  O   UNL     1     -30.886  10.409   7.710  1.00  0.00    -0.289 OA
BRANCH   9  11
ATOM     11  C   UNL     1     -31.429   8.317   6.762  1.00  0.00    +0.022 A 
ATOM     12  C   UNL     1     -31.915   8.240   5.451  1.00  0.00    +0.012 A 
ATOM     13  C   UNL     1     -31.868   7.392   7.718  1.00  0.00    +0.012 A 
ATOM     14  C   UNL     1     -32.816   7.232   5.098  1.00  0.00    +0.001 A 
ATOM     15  C   UNL     1     -32.768   6.386   7.361  1.00  0.00    +0.001 A 
ATOM     16  C   UNL     1     -33.238   6.305   6.051  1.00  0.00    +0.000 A 
ENDBRANCH   9  11
ENDBRANCH   5   9
TORSDOF 2
ENDMDL
MODEL 4
REMARK VINA RESULT:    -7.910      4.232      6.796
REMARK INTER + INTRA:          -9.356
REMARK INTER:                  -8.732
REMARK INTRA:                  -0.624
REMARK UNBOUND:                -0.522
REMARK SMILES Cc1ccc(C(=O)c2ccccc2)c(C)c1
REMARK SMILES IDX 1 1 2 2 16 3 14 4 5 5 4 6 3 7 15 8 6 9 7 10 8 11 9 12 13 13
REMARK SMILES IDX 10 14 12 15 11 16
REMARK H PARENT
ROOT
ATOM      1  C   UNL     1     -32.395   7.688   5.004  1.00  0.00    +0.044 C 
ATOM      2  C   UNL     1     -32.883   6.647   5.969  1.00  0.00    -0.051 A 
ATOM      3  C   UNL     1     -32.297   6.530   7.238  1.00  0.00    +0.007 A 
ATOM      4  C   UNL     1     -32.760   5.584   8.168  1.00  0.00    -0.040 A 
ATOM      5  C   UNL     1     -33.831   4.751   7.802  1.00  0.00    +0.025 A 
ATOM      6  C   UNL     1     -34.421   4.864   6.536  1.00  0.00    +0.013 A 
ATOM      7  C   UNL     1     -33.956   5.816   5.630  1.00  0.00    +0.004 A 
ATOM      8  C   UNL     1     -32.084   5.470   9.506  1.00  0.00    +0.045 C 
ENDROOT
BRANCH   5   9
ATOM      9  C   UNL     1     -34.345   3.718   8.732  1.00  0.00    +0.193 C 
ATOM     10  O   UNL     1     -33.780   2.629   8.784  1.00  0.00    -0.289 OA
BRANCH   9  11
ATOM     11  C   UNL     1     -35.536   3.987   9.585  1.00  0.00    +0.022 A 
ATOM     12  C   UNL     1     -35.652   5.152  10.353  1.00  0.00    +0.012 A 
ATOM     13  C   UNL     1     -36.551   3.023   9.633  1.00  0.00    +0.012 A 
ATOM     14  C   UNL     1     -36.786   5.358  11.144  1.00  0.00    +0.001 A 
ATOM     15  C   UNL     1     -37.682   3.233  10.424  1.00  0.00    +0.001 A 
ATOM     16  C   UNL     1     -37.800   4.401  11.176  1.00  0.00    +0.000 A 
ENDBRANCH   9  11
ENDBRANCH   5   9
TORSDOF 2
ENDMDL
MODEL 5
REMARK VINA RESULT:    -7.849      2.063      6.071
REMARK INTER + INTRA:          -9.289
REMARK INTER:                  -8.694
REMARK INTRA:                  -0.595
REMARK UNBOUND:                -0.522
REMARK SMILES Cc1ccc(C(=O)c2ccccc2)c(C)c1
REMARK SMILES IDX 1 1 2 2 16 3 14 4 5 5 4 6 3 7 15 8 6 9 7 10 8 11 9 12 13 13
REMARK SMILES IDX 10 14 12 15 11 16
REMARK H PARENT
ROOT
ATOM      1  C   UNL     1     -35.123   4.175   9.659  1.00  0.00    +0.044 C 
ATOM      2  C   UNL     1     -34.295   5.100   8.814  1.00  0.00    -0.051 A 
ATOM      3  C   UNL     1     -32.914   5.211   9.033  1.00  0.00    +0.007 A 
ATOM      4  C   UNL     1     -32.116   6.046   8.234  1.00  0.00    -0.040 A 
ATOM      5  C   UNL     1     -32.730   6.774   7.200  1.00  0.00    +0.025 A 
ATOM      6  C   UNL     1     -34.109   6.666   6.975  1.00  0.00    +0.013 A 
ATOM      7  C   UNL     1     -34.884   5.824   7.772  1.00  0.00    +0.004 A 
ATOM      8  C   UNL     1     -30.644   6.160   8.521  1.00  0.00    +0.045 C 
ENDROOT
BRANCH   5   9
ATOM      9  C   UNL     1     -31.943   7.689   6.340  1.00  0.00    +0.193 C 
ATOM     10  O   UNL     1     -31.710   7.363   5.180  1.00  0.00    -0.289 OA
BRANCH   9  11
ATOM     11  C   UNL     1     -31.433   8.982   6.873  1.00  0.00    +0.022 A 
ATOM     12  C   UNL     1     -32.243   9.853   7.613  1.00  0.00    +0.012 A 
ATOM     13  C   UNL     1     -30.107   9.339   6.596  1.00  0.00    +0.012 A 
ATOM     14  C   UNL     1     -31.721  11.060   8.088  1.00  0.00    +0.001 A 
ATOM     15  C   UNL     1     -29.590  10.545   7.072  1.00  0.00    +0.001 A 
ATOM     16  C   UNL     1     -30.396  11.403   7.820  1.00  0.00    +0.000 A 
ENDBRANCH   9  11
ENDBRANCH   5   9
TORSDOF 2
ENDMDL
MODEL 6
REMARK VINA RESULT:    -7.629      3.686      6.214
REMARK INTER + INTRA:          -9.043
REMARK INTER:                  -8.586
REMARK INTRA:                  -0.457
REMARK UNBOUND:                -0.522
REMARK SMILES Cc1ccc(C(=O)c2ccccc2)c(C)c1
REMARK SMILES IDX 1 1 2 2 16 3 14 4 5 5 4 6 3 7 15 8 6 9 7 10 8 11 9 12 13 13
REMARK SMILES IDX 10 14 12 15 11 16
REMARK H PARENT
ROOT
ATOM      1  C   UNL     1     -30.357   8.227   7.316  1.00  0.00    +0.044 C 
ATOM      2  C   UNL     1     -31.505   7.260   7.351  1.00  0.00    -0.051 A 
ATOM      3  C   UNL     1     -32.387   7.172   6.264  1.00  0.00    +0.007 A 
ATOM      4  C   UNL     1     -33.448   6.252   6.262  1.00  0.00    -0.040 A 
ATOM      5  C   UNL     1     -33.612   5.412   7.378  1.00  0.00    +0.025 A 
ATOM      6  C   UNL     1     -32.733   5.495   8.466  1.00  0.00    +0.013 A 
ATOM      7  C   UNL     1     -31.678   6.407   8.445  1.00  0.00    +0.004 A 
ATOM      8  C   UNL     1     -34.390   6.210   5.091  1.00  0.00    +0.045 C 
ENDROOT
BRANCH   5   9
ATOM      9  C   UNL     1     -34.728   4.439   7.443  1.00  0.00    +0.193 C 
ATOM     10  O   UNL     1     -34.750   3.504   6.649  1.00  0.00    -0.289 OA
BRANCH   9  11
ATOM     11  C   UNL     1     -35.815   4.596   8.449  1.00  0.00    +0.022 A 
ATOM     12  C   UNL     1     -36.262   5.854   8.871  1.00  0.00    +0.012 A 
ATOM     13  C   UNL     1     -36.380   3.440   9.003  1.00  0.00    +0.012 A 
ATOM     14  C   UNL     1     -37.281   5.951   9.822  1.00  0.00    +0.001 A 
ATOM     15  C   UNL     1     -37.398   3.541   9.953  1.00  0.00    +0.001 A 
ATOM     16  C   UNL     1     -37.849   4.796  10.359  1.00  0.00    +0.000 A 
ENDBRANCH   9  11
ENDBRANCH   5   9
TORSDOF 2
ENDMDL
MODEL 7
REMARK VINA RESULT:    -7.497      6.232      8.624
REMARK INTER + INTRA:          -8.895
REMARK INTER:                  -8.287
REMARK INTRA:                  -0.608
REMARK UNBOUND:                -0.522
REMARK SMILES Cc1ccc(C(=O)c2ccccc2)c(C)c1
REMARK SMILES IDX 1 1 2 2 16 3 14 4 5 5 4 6 3 7 15 8 6 9 7 10 8 11 9 12 13 13
REMARK SMILES IDX 10 14 12 15 11 16
REMARK H PARENT
ROOT
ATOM      1  C   UNL     1     -31.306   0.067   9.915  1.00  0.00    +0.044 C 
ATOM      2  C   UNL     1     -32.098   1.287  10.285  1.00  0.00    -0.051 A 
ATOM      3  C   UNL     1     -31.907   2.491   9.592  1.00  0.00    +0.007 A 
ATOM      4  C   UNL     1     -32.660   3.636   9.900  1.00  0.00    -0.040 A 
ATOM      5  C   UNL     1     -33.619   3.554  10.925  1.00  0.00    +0.025 A 
ATOM      6  C   UNL     1     -33.815   2.353  11.621  1.00  0.00    +0.013 A 
ATOM      7  C   UNL     1     -33.066   1.224  11.293  1.00  0.00    +0.004 A 
ATOM      8  C   UNL     1     -32.402   4.916   9.154  1.00  0.00    +0.045 C 
ENDROOT
BRANCH   5   9
ATOM      9  C   UNL     1     -34.426   4.735  11.312  1.00  0.00    +0.193 C 
ATOM     10  O   UNL     1     -33.986   5.503  12.163  1.00  0.00    -0.289 OA
BRANCH   9  11
ATOM     11  C   UNL     1     -35.755   4.985  10.690  1.00  0.00    +0.022 A 
ATOM     12  C   UNL     1     -36.608   6.000  11.141  1.00  0.00    +0.012 A 
ATOM     13  C   UNL     1     -36.164   4.154   9.639  1.00  0.00    +0.012 A 
ATOM     14  C   UNL     1     -37.850   6.193  10.529  1.00  0.00    +0.001 A 
ATOM     15  C   UNL     1     -37.405   4.350   9.030  1.00  0.00    +0.001 A 
ATOM     16  C   UNL     1     -38.245   5.371   9.474  1.00  0.00    +0.000 A 
ENDBRANCH   9  11
ENDBRANCH   5   9
TORSDOF 2
ENDMDL
MODEL 8
REMARK VINA RESULT:    -7.105      4.203      6.584
REMARK INTER + INTRA:          -8.458
REMARK INTER:                  -7.961
REMARK INTRA:                  -0.497
REMARK UNBOUND:                -0.522
REMARK SMILES Cc1ccc(C(=O)c2ccccc2)c(C)c1
REMARK SMILES IDX 1 1 2 2 16 3 14 4 5 5 4 6 3 7 15 8 6 9 7 10 8 11 9 12 13 13
REMARK SMILES IDX 10 14 12 15 11 16
REMARK H PARENT
ROOT
ATOM      1  C   UNL     1     -32.276   7.268   4.752  1.00  0.00    +0.044 C 
ATOM      2  C   UNL     1     -32.877   6.634   5.973  1.00  0.00    -0.051 A 
ATOM      3  C   UNL     1     -32.119   6.499   7.145  1.00  0.00    +0.007 A 
ATOM      4  C   UNL     1     -32.671   5.938   8.308  1.00  0.00    -0.040 A 
ATOM      5  C   UNL     1     -34.010   5.511   8.278  1.00  0.00    +0.025 A 
ATOM      6  C   UNL     1     -34.773   5.644   7.110  1.00  0.00    +0.013 A 
ATOM      7  C   UNL     1     -34.211   6.213   5.968  1.00  0.00    +0.004 A 
ATOM      8  C   UNL     1     -31.814   5.783   9.534  1.00  0.00    +0.045 C 
ENDROOT
BRANCH   5   9
ATOM      9  C   UNL     1     -34.639   4.888   9.466  1.00  0.00    +0.193 C 
ATOM     10  O   UNL     1     -35.576   5.463  10.012  1.00  0.00    -0.289 OA
BRANCH   9  11
ATOM     11  C   UNL     1     -34.139   3.591   9.999  1.00  0.00    +0.022 A 
ATOM     12  C   UNL     1     -33.856   2.504   9.164  1.00  0.00    +0.012 A 
ATOM     13  C   UNL     1     -33.978   3.460  11.385  1.00  0.00    +0.012 A 
ATOM     14  C   UNL     1     -33.394   1.303   9.712  1.00  0.00    +0.001 A 
ATOM     15  C   UNL     1     -33.517   2.259  11.928  1.00  0.00    +0.001 A 
ATOM     16  C   UNL     1     -33.223   1.183  11.091  1.00  0.00    +0.000 A 
ENDBRANCH   9  11
ENDBRANCH   5   9
TORSDOF 2
ENDMDL
MODEL 9
REMARK VINA RESULT:    -6.908      8.748     11.687
REMARK INTER + INTRA:          -8.238
REMARK INTER:                  -7.618
REMARK INTRA:                  -0.620
REMARK UNBOUND:                -0.522
REMARK SMILES Cc1ccc(C(=O)c2ccccc2)c(C)c1
REMARK SMILES IDX 1 1 2 2 16 3 14 4 5 5 4 6 3 7 15 8 6 9 7 10 8 11 9 12 13 13
REMARK SMILES IDX 10 14 12 15 11 16
REMARK H PARENT
ROOT
ATOM      1  C   UNL     1     -32.521  -2.612  11.402  1.00  0.00    +0.044 C 
ATOM      2  C   UNL     1     -31.556  -1.578  11.906  1.00  0.00    -0.051 A 
ATOM      3  C   UNL     1     -30.253  -1.946  12.271  1.00  0.00    +0.007 A 
ATOM      4  C   UNL     1     -29.324  -0.990  12.713  1.00  0.00    -0.040 A 
ATOM      5  C   UNL     1     -29.726   0.355  12.784  1.00  0.00    +0.025 A 
ATOM      6  C   UNL     1     -31.027   0.730  12.420  1.00  0.00    +0.013 A 
ATOM      7  C   UNL     1     -31.931  -0.232  11.972  1.00  0.00    +0.004 A 
ATOM      8  C   UNL     1     -27.946  -1.431  13.125  1.00  0.00    +0.045 C 
ENDROOT
BRANCH   5   9
ATOM      9  C   UNL     1     -28.798   1.405  13.268  1.00  0.00    +0.193 C 
ATOM     10  O   UNL     1     -28.745   1.643  14.471  1.00  0.00    -0.289 OA
BRANCH   9  11
ATOM     11  C   UNL     1     -27.949   2.168  12.313  1.00  0.00    +0.022 A 
ATOM     12  C   UNL     1     -28.120   2.074  10.926  1.00  0.00    +0.012 A 
ATOM     13  C   UNL     1     -26.933   2.982  12.830  1.00  0.00    +0.012 A 
ATOM     14  C   UNL     1     -27.295   2.806  10.068  1.00  0.00    +0.001 A 
ATOM     15  C   UNL     1     -26.110   3.711  11.970  1.00  0.00    +0.001 A 
ATOM     16  C   UNL     1     -26.294   3.625  10.590  1.00  0.00    +0.000 A 
ENDBRANCH   9  11
ENDBRANCH   5   9
TORSDOF 2
ENDMDL
