MODEL 1
REMARK VINA RESULT:    -7.401      0.000      0.000
REMARK INTER + INTRA:         -21.932
REMARK INTER:                 -19.515
REMARK INTRA:                  -2.417
REMARK UNBOUND:                -2.417
REMARK SMILES CCCCCCCCCCCCCCCC(=O)CCCCCCCCCCCCCCC
REMARK SMILES IDX 16 1 17 2 15 3 14 4 13 5 12 6 11 7 10 8 9 9 8 10 7 11 6 12
REMARK SMILES IDX 5 13 4 14 3 15 2 16 1 17 18 18 19 19 20 20 21 21 22 22 23 23
REMARK SMILES IDX 24 24 25 25 26 26 27 27 28 28 29 29 30 30 31 31 32 32
REMARK H PARENT
ROOT
ATOM      1  C   UNL     1     -31.440  10.659   7.781  1.00  0.00    +0.132 C 
ATOM      2  O   UNL     1     -32.480  10.784   8.430  1.00  0.00    -0.300 OA
ENDROOT
BRANCH   1   3
ATOM      3  C   UNL     1     -30.498  11.834   7.595  1.00  0.00    +0.075 C 
BRANCH   3   4
ATOM      4  C   UNL     1     -30.224  12.134   6.122  1.00  0.00    +0.008 C 
BRANCH   4   5
ATOM      5  C   UNL     1     -28.735  12.248   5.785  1.00  0.00    +0.000 C 
BRANCH   5   6
ATOM      6  C   UNL     1     -27.865  11.056   6.200  1.00  0.00    +0.000 C 
BRANCH   6   7
ATOM      7  C   UNL     1     -26.987  10.511   5.070  1.00  0.00    +0.000 C 
BRANCH   7   8
ATOM      8  C   UNL     1     -26.422   9.132   5.421  1.00  0.00    +0.000 C 
BRANCH   8   9
ATOM      9  C   UNL     1     -27.223   8.405   6.504  1.00  0.00    +0.000 C 
BRANCH   9  10
ATOM     10  C   UNL     1     -26.552   7.175   7.122  1.00  0.00    +0.000 C 
BRANCH  10  11
ATOM     11  C   UNL     1     -27.401   6.494   8.198  1.00  0.00    -0.000 C 
BRANCH  11  12
ATOM     12  C   UNL     1     -26.910   5.066   8.458  1.00  0.00    -0.000 C 
BRANCH  12  13
ATOM     13  C   UNL     1     -25.591   5.005   9.233  1.00  0.00    -0.000 C 
BRANCH  13  14
ATOM     14  C   UNL     1     -25.404   3.703  10.015  1.00  0.00    -0.000 C 
BRANCH  14  15
ATOM     15  C   UNL     1     -25.748   3.895  11.495  1.00  0.00    -0.000 C 
BRANCH  15  16
ATOM     16  C   UNL     1     -26.497   2.707  12.100  1.00  0.00    -0.003 C 
ATOM     17  C   UNL     1     -27.796   2.378  11.380  1.00  0.00    +0.004 C 
ENDBRANCH  15  16
ENDBRANCH  14  15
ENDBRANCH  13  14
ENDBRANCH  12  13
ENDBRANCH  11  12
ENDBRANCH  10  11
ENDBRANCH   9  10
ENDBRANCH   8   9
ENDBRANCH   7   8
ENDBRANCH   6   7
ENDBRANCH   5   6
ENDBRANCH   4   5
ENDBRANCH   3   4
ENDBRANCH   1   3
BRANCH   1  18
ATOM     18  C   UNL     1     -31.049   9.338   7.141  1.00  0.00    +0.075 C 
BRANCH  18  19
ATOM     19  C   UNL     1     -32.147   8.277   7.249  1.00  0.00    +0.008 C 
BRANCH  19  20
ATOM     20  C   UNL     1     -31.861   7.047   6.376  1.00  0.00    +0.000 C 
BRANCH  20  21
ATOM     21  C   UNL     1     -32.604   7.073   5.036  1.00  0.00    +0.000 C 
BRANCH  21  22
ATOM     22  C   UNL     1     -34.040   6.545   5.146  1.00  0.00    +0.000 C 
BRANCH  22  23
ATOM     23  C   UNL     1     -34.115   5.130   5.731  1.00  0.00    +0.000 C 
BRANCH  23  24
ATOM     24  C   UNL     1     -34.821   5.050   7.094  1.00  0.00    +0.000 C 
BRANCH  24  25
ATOM     25  C   UNL     1     -34.077   4.229   8.157  1.00  0.00    +0.000 C 
BRANCH  25  26
ATOM     26  C   UNL     1     -33.229   5.098   9.093  1.00  0.00    -0.000 C 
BRANCH  26  27
ATOM     27  C   UNL     1     -33.176   4.574  10.532  1.00  0.00    -0.000 C 
BRANCH  27  28
ATOM     28  C   UNL     1     -34.264   5.093  11.478  1.00  0.00    -0.000 C 
BRANCH  28  29
ATOM     29  C   UNL     1     -35.670   4.614  11.110  1.00  0.00    -0.000 C 
BRANCH  29  30
ATOM     30  C   UNL     1     -36.664   5.760  10.900  1.00  0.00    -0.000 C 
BRANCH  30  31
ATOM     31  C   UNL     1     -38.116   5.360  11.174  1.00  0.00    -0.003 C 
ATOM     32  C   UNL     1     -38.363   3.901  10.827  1.00  0.00    +0.004 C 
ENDBRANCH  30  31
ENDBRANCH  29  30
ENDBRANCH  28  29
ENDBRANCH  27  28
ENDBRANCH  26  27
ENDBRANCH  25  26
ENDBRANCH  24  25
ENDBRANCH  23  24
ENDBRANCH  22  23
ENDBRANCH  21  22
ENDBRANCH  20  21
ENDBRANCH  19  20
ENDBRANCH  18  19
ENDBRANCH   1  18
TORSDOF 28
ENDMDL
MODEL 2
REMARK VINA RESULT:    -7.276      2.589      9.659
REMARK INTER + INTRA:         -21.604
REMARK INTER:                 -17.992
REMARK INTRA:                  -3.612
REMARK UNBOUND:                -2.417
REMARK SMILES CCCCCCCCCCCCCCCC(=O)CCCCCCCCCCCCCCC
REMARK SMILES IDX 16 1 17 2 15 3 14 4 13 5 12 6 11 7 10 8 9 9 8 10 7 11 6 12
REMARK SMILES IDX 5 13 4 14 3 15 2 16 1 17 18 18 19 19 20 20 21 21 22 22 23 23
REMARK SMILES IDX 24 24 25 25 26 26 27 27 28 28 29 29 30 30 31 31 32 32
REMARK H PARENT
ROOT
ATOM      1  C   UNL     1     -33.583   6.539   5.602  1.00  0.00    +0.132 C 
ATOM      2  O   UNL     1     -34.415   6.517   4.693  1.00  0.00    -0.300 OA
ENDROOT
BRANCH   1   3
ATOM      3  C   UNL     1     -33.843   5.806   6.906  1.00  0.00    +0.075 C 
BRANCH   3   4
ATOM      4  C   UNL     1     -34.719   4.569   6.714  1.00  0.00    +0.008 C 
BRANCH   4   5
ATOM      5  C   UNL     1     -34.698   3.611   7.908  1.00  0.00    +0.000 C 
BRANCH   5   6
ATOM      6  C   UNL     1     -35.874   2.631   7.996  1.00  0.00    +0.000 C 
BRANCH   6   7
ATOM      7  C   UNL     1     -36.081   2.043   9.395  1.00  0.00    +0.000 C 
BRANCH   7   8
ATOM      8  C   UNL     1     -34.749   1.626  10.025  1.00  0.00    +0.000 C 
BRANCH   8   9
ATOM      9  C   UNL     1     -34.436   2.366  11.328  1.00  0.00    +0.000 C 
BRANCH   9  10
ATOM     10  C   UNL     1     -33.432   3.518  11.220  1.00  0.00    +0.000 C 
BRANCH  10  11
ATOM     11  C   UNL     1     -34.075   4.901  11.351  1.00  0.00    -0.000 C 
BRANCH  11  12
ATOM     12  C   UNL     1     -35.594   4.784  11.515  1.00  0.00    -0.000 C 
BRANCH  12  13
ATOM     13  C   UNL     1     -36.347   6.072  11.172  1.00  0.00    -0.000 C 
BRANCH  13  14
ATOM     14  C   UNL     1     -36.682   6.203   9.685  1.00  0.00    -0.000 C 
BRANCH  14  15
ATOM     15  C   UNL     1     -38.196   6.162   9.455  1.00  0.00    -0.000 C 
BRANCH  15  16
ATOM     16  C   UNL     1     -38.723   4.756   9.158  1.00  0.00    -0.003 C 
ATOM     17  C   UNL     1     -39.062   3.959  10.409  1.00  0.00    +0.004 C 
ENDBRANCH  15  16
ENDBRANCH  14  15
ENDBRANCH  13  14
ENDBRANCH  12  13
ENDBRANCH  11  12
ENDBRANCH  10  11
ENDBRANCH   9  10
ENDBRANCH   8   9
ENDBRANCH   7   8
ENDBRANCH   6   7
ENDBRANCH   5   6
ENDBRANCH   4   5
ENDBRANCH   3   4
ENDBRANCH   1   3
BRANCH   1  18
ATOM     18  C   UNL     1     -32.270   7.291   5.469  1.00  0.00    +0.075 C 
BRANCH  18  19
ATOM     19  C   UNL     1     -31.482   7.344   6.781  1.00  0.00    +0.008 C 
BRANCH  19  20
ATOM     20  C   UNL     1     -31.859   8.558   7.641  1.00  0.00    +0.000 C 
BRANCH  20  21
ATOM     21  C   UNL     1     -31.634   9.896   6.928  1.00  0.00    +0.000 C 
BRANCH  21  22
ATOM     22  C   UNL     1     -31.496  11.070   7.906  1.00  0.00    +0.000 C 
BRANCH  22  23
ATOM     23  C   UNL     1     -30.417  12.076   7.486  1.00  0.00    +0.000 C 
BRANCH  23  24
ATOM     24  C   UNL     1     -29.463  11.556   6.398  1.00  0.00    +0.000 C 
BRANCH  24  25
ATOM     25  C   UNL     1     -28.848  12.645   5.508  1.00  0.00    +0.000 C 
BRANCH  25  26
ATOM     26  C   UNL     1     -27.328  12.511   5.370  1.00  0.00    -0.000 C 
BRANCH  26  27
ATOM     27  C   UNL     1     -26.878  11.139   4.856  1.00  0.00    -0.000 C 
BRANCH  27  28
ATOM     28  C   UNL     1     -25.734  10.473   5.626  1.00  0.00    -0.000 C 
BRANCH  28  29
ATOM     29  C   UNL     1     -25.907   8.961   5.787  1.00  0.00    -0.000 C 
BRANCH  29  30
ATOM     30  C   UNL     1     -26.243   8.540   7.221  1.00  0.00    -0.000 C 
BRANCH  30  31
ATOM     31  C   UNL     1     -27.731   8.663   7.556  1.00  0.00    -0.003 C 
ATOM     32  C   UNL     1     -28.299   7.344   8.052  1.00  0.00    +0.004 C 
ENDBRANCH  30  31
ENDBRANCH  29  30
ENDBRANCH  28  29
ENDBRANCH  27  28
ENDBRANCH  26  27
ENDBRANCH  25  26
ENDBRANCH  24  25
ENDBRANCH  23  24
ENDBRANCH  22  23
ENDBRANCH  21  22
ENDBRANCH  20  21
ENDBRANCH  19  20
ENDBRANCH  18  19
ENDBRANCH   1  18
TORSDOF 28
ENDMDL
MODEL 3
REMARK VINA RESULT:    -7.250      1.832      9.563
REMARK INTER + INTRA:         -21.534
REMARK INTER:                 -18.030
REMARK INTRA:                  -3.504
REMARK UNBOUND:                -2.417
REMARK SMILES CCCCCCCCCCCCCCCC(=O)CCCCCCCCCCCCCCC
REMARK SMILES IDX 16 1 17 2 15 3 14 4 13 5 12 6 11 7 10 8 9 9 8 10 7 11 6 12
REMARK SMILES IDX 5 13 4 14 3 15 2 16 1 17 18 18 19 19 20 20 21 21 22 22 23 23
REMARK SMILES IDX 24 24 25 25 26 26 27 27 28 28 29 29 30 30 31 31 32 32
REMARK H PARENT
ROOT
ATOM      1  C   UNL     1     -33.748   6.357   5.060  1.00  0.00    +0.132 C 
ATOM      2  O   UNL     1     -34.758   6.838   4.546  1.00  0.00    -0.300 OA
ENDROOT
BRANCH   1   3
ATOM      3  C   UNL     1     -33.786   4.978   5.695  1.00  0.00    +0.075 C 
BRANCH   3   4
ATOM      4  C   UNL     1     -34.440   4.991   7.076  1.00  0.00    +0.008 C 
BRANCH   4   5
ATOM      5  C   UNL     1     -35.310   3.762   7.354  1.00  0.00    +0.000 C 
BRANCH   5   6
ATOM      6  C   UNL     1     -34.973   2.983   8.631  1.00  0.00    +0.000 C 
BRANCH   6   7
ATOM      7  C   UNL     1     -33.557   3.242   9.155  1.00  0.00    +0.000 C 
BRANCH   7   8
ATOM      8  C   UNL     1     -33.576   3.639  10.634  1.00  0.00    +0.000 C 
BRANCH   8   9
ATOM      9  C   UNL     1     -34.172   5.027  10.882  1.00  0.00    +0.000 C 
BRANCH   9  10
ATOM     10  C   UNL     1     -35.468   5.064  11.697  1.00  0.00    +0.000 C 
BRANCH  10  11
ATOM     11  C   UNL     1     -36.411   6.200  11.292  1.00  0.00    -0.000 C 
BRANCH  11  12
ATOM     12  C   UNL     1     -36.761   6.114   9.803  1.00  0.00    -0.000 C 
BRANCH  12  13
ATOM     13  C   UNL     1     -38.255   6.278   9.516  1.00  0.00    -0.000 C 
BRANCH  13  14
ATOM     14  C   UNL     1     -39.126   5.223  10.201  1.00  0.00    -0.000 C 
BRANCH  14  15
ATOM     15  C   UNL     1     -38.680   3.808   9.819  1.00  0.00    -0.000 C 
BRANCH  15  16
ATOM     16  C   UNL     1     -38.572   2.865  11.018  1.00  0.00    -0.003 C 
ATOM     17  C   UNL     1     -37.352   1.957  10.968  1.00  0.00    +0.004 C 
ENDBRANCH  15  16
ENDBRANCH  14  15
ENDBRANCH  13  14
ENDBRANCH  12  13
ENDBRANCH  11  12
ENDBRANCH  10  11
ENDBRANCH   9  10
ENDBRANCH   8   9
ENDBRANCH   7   8
ENDBRANCH   6   7
ENDBRANCH   5   6
ENDBRANCH   4   5
ENDBRANCH   3   4
ENDBRANCH   1   3
BRANCH   1  18
ATOM     18  C   UNL     1     -32.426   7.105   5.087  1.00  0.00    +0.075 C 
BRANCH  18  19
ATOM     19  C   UNL     1     -32.214   7.888   6.385  1.00  0.00    +0.008 C 
BRANCH  19  20
ATOM     20  C   UNL     1     -31.104   8.941   6.257  1.00  0.00    +0.000 C 
BRANCH  20  21
ATOM     21  C   UNL     1     -31.426  10.247   6.993  1.00  0.00    +0.000 C 
BRANCH  21  22
ATOM     22  C   UNL     1     -30.531  11.412   6.546  1.00  0.00    +0.000 C 
BRANCH  22  23
ATOM     23  C   UNL     1     -29.042  11.154   6.800  1.00  0.00    +0.000 C 
BRANCH  23  24
ATOM     24  C   UNL     1     -28.105  11.836   5.788  1.00  0.00    +0.000 C 
BRANCH  24  25
ATOM     25  C   UNL     1     -27.158  10.882   5.046  1.00  0.00    +0.000 C 
BRANCH  25  26
ATOM     26  C   UNL     1     -25.824  10.685   5.773  1.00  0.00    -0.000 C 
BRANCH  26  27
ATOM     27  C   UNL     1     -25.875   9.612   6.866  1.00  0.00    -0.000 C 
BRANCH  27  28
ATOM     28  C   UNL     1     -26.537   8.286   6.477  1.00  0.00    -0.000 C 
BRANCH  28  29
ATOM     29  C   UNL     1     -27.603   7.823   7.473  1.00  0.00    -0.000 C 
BRANCH  29  30
ATOM     30  C   UNL     1     -27.281   6.473   8.120  1.00  0.00    -0.000 C 
BRANCH  30  31
ATOM     31  C   UNL     1     -25.849   6.000   7.854  1.00  0.00    -0.003 C 
ATOM     32  C   UNL     1     -25.374   5.039   8.931  1.00  0.00    +0.004 C 
ENDBRANCH  30  31
ENDBRANCH  29  30
ENDBRANCH  28  29
ENDBRANCH  27  28
ENDBRANCH  26  27
ENDBRANCH  25  26
ENDBRANCH  24  25
ENDBRANCH  23  24
ENDBRANCH  22  23
ENDBRANCH  21  22
ENDBRANCH  20  21
ENDBRANCH  19  20
ENDBRANCH  18  19
ENDBRANCH   1  18
TORSDOF 28
ENDMDL
MODEL 4
REMARK VINA RESULT:    -7.203      2.892      7.494
REMARK INTER + INTRA:         -21.411
REMARK INTER:                 -18.156
REMARK INTRA:                  -3.256
REMARK UNBOUND:                -2.417
REMARK SMILES CCCCCCCCCCCCCCCC(=O)CCCCCCCCCCCCCCC
REMARK SMILES IDX 16 1 17 2 15 3 14 4 13 5 12 6 11 7 10 8 9 9 8 10 7 11 6 12
REMARK SMILES IDX 5 13 4 14 3 15 2 16 1 17 18 18 19 19 20 20 21 21 22 22 23 23
REMARK SMILES IDX 24 24 25 25 26 26 27 27 28 28 29 29 30 30 31 31 32 32
REMARK H PARENT
ROOT
ATOM      1  C   UNL     1     -26.469   5.420   8.260  1.00  0.00    +0.132 C 
ATOM      2  O   UNL     1     -25.294   5.050   8.285  1.00  0.00    -0.300 OA
ENDROOT
BRANCH   1   3
ATOM      3  C   UNL     1     -27.570   4.536   8.819  1.00  0.00    +0.075 C 
BRANCH   3   4
ATOM      4  C   UNL     1     -27.028   3.243   9.424  1.00  0.00    +0.008 C 
BRANCH   4   5
ATOM      5  C   UNL     1     -26.642   3.370  10.900  1.00  0.00    +0.000 C 
BRANCH   5   6
ATOM      6  C   UNL     1     -25.515   2.446  11.376  1.00  0.00    +0.000 C 
BRANCH   6   7
ATOM      7  C   UNL     1     -24.337   2.359  10.402  1.00  0.00    +0.000 C 
BRANCH   7   8
ATOM      8  C   UNL     1     -24.092   0.915   9.954  1.00  0.00    +0.000 C 
BRANCH   8   9
ATOM      9  C   UNL     1     -25.379   0.157   9.618  1.00  0.00    +0.000 C 
BRANCH   9  10
ATOM     10  C   UNL     1     -25.609  -1.147  10.388  1.00  0.00    +0.000 C 
BRANCH  10  11
ATOM     11  C   UNL     1     -27.029  -1.285  10.942  1.00  0.00    -0.000 C 
BRANCH  11  12
ATOM     12  C   UNL     1     -27.957  -0.228  10.334  1.00  0.00    -0.000 C 
BRANCH  12  13
ATOM     13  C   UNL     1     -29.427  -0.408  10.724  1.00  0.00    -0.000 C 
BRANCH  13  14
ATOM     14  C   UNL     1     -29.981   0.749  11.558  1.00  0.00    -0.000 C 
BRANCH  14  15
ATOM     15  C   UNL     1     -28.910   1.316  12.495  1.00  0.00    -0.000 C 
BRANCH  15  16
ATOM     16  C   UNL     1     -29.101   0.897  13.954  1.00  0.00    -0.003 C 
ATOM     17  C   UNL     1     -30.557   0.889  14.398  1.00  0.00    +0.004 C 
ENDBRANCH  15  16
ENDBRANCH  14  15
ENDBRANCH  13  14
ENDBRANCH  12  13
ENDBRANCH  11  12
ENDBRANCH  10  11
ENDBRANCH   9  10
ENDBRANCH   8   9
ENDBRANCH   7   8
ENDBRANCH   6   7
ENDBRANCH   5   6
ENDBRANCH   4   5
ENDBRANCH   3   4
ENDBRANCH   1   3
BRANCH   1  18
ATOM     18  C   UNL     1     -26.875   6.762   7.676  1.00  0.00    +0.075 C 
BRANCH  18  19
ATOM     19  C   UNL     1     -25.804   7.360   6.761  1.00  0.00    +0.008 C 
BRANCH  19  20
ATOM     20  C   UNL     1     -26.355   8.486   5.874  1.00  0.00    +0.000 C 
BRANCH  20  21
ATOM     21  C   UNL     1     -27.810   8.849   6.193  1.00  0.00    +0.000 C 
BRANCH  21  22
ATOM     22  C   UNL     1     -27.946  10.240   6.826  1.00  0.00    +0.000 C 
BRANCH  22  23
ATOM     23  C   UNL     1     -28.389  11.313   5.825  1.00  0.00    +0.000 C 
BRANCH  23  24
ATOM     24  C   UNL     1     -29.686  12.040   6.218  1.00  0.00    +0.000 C 
BRANCH  24  25
ATOM     25  C   UNL     1     -30.211  11.705   7.621  1.00  0.00    +0.000 C 
BRANCH  25  26
ATOM     26  C   UNL     1     -31.725  11.471   7.649  1.00  0.00    -0.000 C 
BRANCH  26  27
ATOM     27  C   UNL     1     -32.116  10.033   8.007  1.00  0.00    -0.000 C 
BRANCH  27  28
ATOM     28  C   UNL     1     -31.310   8.926   7.320  1.00  0.00    -0.000 C 
BRANCH  28  29
ATOM     29  C   UNL     1     -32.160   8.015   6.432  1.00  0.00    -0.000 C 
BRANCH  29  30
ATOM     30  C   UNL     1     -32.483   6.665   7.081  1.00  0.00    -0.000 C 
BRANCH  30  31
ATOM     31  C   UNL     1     -31.542   6.309   8.236  1.00  0.00    -0.003 C 
ATOM     32  C   UNL     1     -32.235   5.430   9.264  1.00  0.00    +0.004 C 
ENDBRANCH  30  31
ENDBRANCH  29  30
ENDBRANCH  28  29
ENDBRANCH  27  28
ENDBRANCH  26  27
ENDBRANCH  25  26
ENDBRANCH  24  25
ENDBRANCH  23  24
ENDBRANCH  22  23
ENDBRANCH  21  22
ENDBRANCH  20  21
ENDBRANCH  19  20
ENDBRANCH  18  19
ENDBRANCH   1  18
TORSDOF 28
ENDMDL
MODEL 5
REMARK VINA RESULT:    -7.114      1.352      2.354
REMARK INTER + INTRA:         -21.177
REMARK INTER:                 -18.425
REMARK INTRA:                  -2.751
REMARK UNBOUND:                -2.417
REMARK SMILES CCCCCCCCCCCCCCCC(=O)CCCCCCCCCCCCCCC
REMARK SMILES IDX 16 1 17 2 15 3 14 4 13 5 12 6 11 7 10 8 9 9 8 10 7 11 6 12
REMARK SMILES IDX 5 13 4 14 3 15 2 16 1 17 18 18 19 19 20 20 21 21 22 22 23 23
REMARK SMILES IDX 24 24 25 25 26 26 27 27 28 28 29 29 30 30 31 31 32 32
REMARK H PARENT
ROOT
ATOM      1  C   UNL     1     -31.398  10.571   7.547  1.00  0.00    +0.132 C 
ATOM      2  O   UNL     1     -32.190  10.512   8.489  1.00  0.00    -0.300 OA
ENDROOT
BRANCH   1   3
ATOM      3  C   UNL     1     -30.255  11.570   7.559  1.00  0.00    +0.075 C 
BRANCH   3   4
ATOM      4  C   UNL     1     -29.924  12.094   6.162  1.00  0.00    +0.008 C 
BRANCH   4   5
ATOM      5  C   UNL     1     -28.422  12.177   5.878  1.00  0.00    +0.000 C 
BRANCH   5   6
ATOM      6  C   UNL     1     -27.776  10.898   5.330  1.00  0.00    +0.000 C 
BRANCH   6   7
ATOM      7  C   UNL     1     -26.378  10.626   5.892  1.00  0.00    +0.000 C 
BRANCH   7   8
ATOM      8  C   UNL     1     -26.374   9.392   6.798  1.00  0.00    +0.000 C 
BRANCH   8   9
ATOM      9  C   UNL     1     -25.491   8.257   6.274  1.00  0.00    +0.000 C 
BRANCH   9  10
ATOM     10  C   UNL     1     -25.368   7.029   7.182  1.00  0.00    +0.000 C 
BRANCH  10  11
ATOM     11  C   UNL     1     -26.707   6.560   7.757  1.00  0.00    -0.000 C 
BRANCH  11  12
ATOM     12  C   UNL     1     -26.541   5.244   8.523  1.00  0.00    -0.000 C 
BRANCH  12  13
ATOM     13  C   UNL     1     -25.180   5.104   9.211  1.00  0.00    -0.000 C 
BRANCH  13  14
ATOM     14  C   UNL     1     -25.044   3.824  10.038  1.00  0.00    -0.000 C 
BRANCH  14  15
ATOM     15  C   UNL     1     -26.404   3.371  10.579  1.00  0.00    -0.000 C 
BRANCH  15  16
ATOM     16  C   UNL     1     -26.458   3.317  12.107  1.00  0.00    -0.003 C 
ATOM     17  C   UNL     1     -27.554   2.409  12.644  1.00  0.00    +0.004 C 
ENDBRANCH  15  16
ENDBRANCH  14  15
ENDBRANCH  13  14
ENDBRANCH  12  13
ENDBRANCH  11  12
ENDBRANCH  10  11
ENDBRANCH   9  10
ENDBRANCH   8   9
ENDBRANCH   7   8
ENDBRANCH   6   7
ENDBRANCH   5   6
ENDBRANCH   4   5
ENDBRANCH   3   4
ENDBRANCH   1   3
BRANCH   1  18
ATOM     18  C   UNL     1     -31.518   9.658   6.339  1.00  0.00    +0.075 C 
BRANCH  18  19
ATOM     19  C   UNL     1     -30.591   8.443   6.418  1.00  0.00    +0.008 C 
BRANCH  19  20
ATOM     20  C   UNL     1     -30.800   7.631   7.704  1.00  0.00    +0.000 C 
BRANCH  20  21
ATOM     21  C   UNL     1     -32.118   6.847   7.715  1.00  0.00    +0.000 C 
BRANCH  21  22
ATOM     22  C   UNL     1     -32.636   6.545   6.303  1.00  0.00    +0.000 C 
BRANCH  22  23
ATOM     23  C   UNL     1     -34.031   5.910   6.300  1.00  0.00    +0.000 C 
BRANCH  23  24
ATOM     24  C   UNL     1     -34.861   6.212   7.558  1.00  0.00    +0.000 C 
BRANCH  24  25
ATOM     25  C   UNL     1     -35.396   4.972   8.289  1.00  0.00    +0.000 C 
BRANCH  25  26
ATOM     26  C   UNL     1     -35.705   5.240   9.766  1.00  0.00    -0.000 C 
BRANCH  26  27
ATOM     27  C   UNL     1     -35.849   3.964  10.603  1.00  0.00    -0.000 C 
BRANCH  27  28
ATOM     28  C   UNL     1     -36.086   2.669   9.819  1.00  0.00    -0.000 C 
BRANCH  28  29
ATOM     29  C   UNL     1     -34.851   1.770   9.741  1.00  0.00    -0.000 C 
BRANCH  29  30
ATOM     30  C   UNL     1     -33.843   2.026  10.866  1.00  0.00    -0.000 C 
BRANCH  30  31
ATOM     31  C   UNL     1     -32.408   2.206  10.363  1.00  0.00    -0.003 C 
ATOM     32  C   UNL     1     -32.270   3.464   9.522  1.00  0.00    +0.004 C 
ENDBRANCH  30  31
ENDBRANCH  29  30
ENDBRANCH  28  29
ENDBRANCH  27  28
ENDBRANCH  26  27
ENDBRANCH  25  26
ENDBRANCH  24  25
ENDBRANCH  23  24
ENDBRANCH  22  23
ENDBRANCH  21  22
ENDBRANCH  20  21
ENDBRANCH  19  20
ENDBRANCH  18  19
ENDBRANCH   1  18
TORSDOF 28
ENDMDL
MODEL 6
REMARK VINA RESULT:    -7.049      2.195      7.630
REMARK INTER + INTRA:         -21.005
REMARK INTER:                 -18.077
REMARK INTRA:                  -2.927
REMARK UNBOUND:                -2.417
REMARK SMILES CCCCCCCCCCCCCCCC(=O)CCCCCCCCCCCCCCC
REMARK SMILES IDX 16 1 17 2 15 3 14 4 13 5 12 6 11 7 10 8 9 9 8 10 7 11 6 12
REMARK SMILES IDX 5 13 4 14 3 15 2 16 1 17 18 18 19 19 20 20 21 21 22 22 23 23
REMARK SMILES IDX 24 24 25 25 26 26 27 27 28 28 29 29 30 30 31 31 32 32
REMARK H PARENT
ROOT
ATOM      1  C   UNL     1     -32.104   7.823   6.302  1.00  0.00    +0.132 C 
ATOM      2  O   UNL     1     -32.519   7.819   5.142  1.00  0.00    -0.300 OA
ENDROOT
BRANCH   1   3
ATOM      3  C   UNL     1     -32.441   6.684   7.247  1.00  0.00    +0.075 C 
BRANCH   3   4
ATOM      4  C   UNL     1     -31.353   6.456   8.295  1.00  0.00    +0.008 C 
BRANCH   4   5
ATOM      5  C   UNL     1     -31.853   5.746   9.555  1.00  0.00    +0.000 C 
BRANCH   5   6
ATOM      6  C   UNL     1     -33.187   5.003   9.416  1.00  0.00    +0.000 C 
BRANCH   6   7
ATOM      7  C   UNL     1     -33.110   3.522   9.799  1.00  0.00    +0.000 C 
BRANCH   7   8
ATOM      8  C   UNL     1     -31.754   2.920   9.420  1.00  0.00    +0.000 C 
BRANCH   8   9
ATOM      9  C   UNL     1     -31.462   1.591  10.121  1.00  0.00    +0.000 C 
BRANCH   9  10
ATOM     10  C   UNL     1     -29.983   1.253  10.327  1.00  0.00    +0.000 C 
BRANCH  10  11
ATOM     11  C   UNL     1     -29.701  -0.251  10.360  1.00  0.00    -0.000 C 
BRANCH  11  12
ATOM     12  C   UNL     1     -29.145  -0.672  11.725  1.00  0.00    -0.000 C 
BRANCH  12  13
ATOM     13  C   UNL     1     -29.184   0.445  12.772  1.00  0.00    -0.000 C 
BRANCH  13  14
ATOM     14  C   UNL     1     -27.797   0.940  13.185  1.00  0.00    -0.000 C 
BRANCH  14  15
ATOM     15  C   UNL     1     -27.656   2.446  12.948  1.00  0.00    -0.000 C 
BRANCH  15  16
ATOM     16  C   UNL     1     -26.594   2.796  11.904  1.00  0.00    -0.003 C 
ATOM     17  C   UNL     1     -26.197   1.620  11.024  1.00  0.00    +0.004 C 
ENDBRANCH  15  16
ENDBRANCH  14  15
ENDBRANCH  13  14
ENDBRANCH  12  13
ENDBRANCH  11  12
ENDBRANCH  10  11
ENDBRANCH   9  10
ENDBRANCH   8   9
ENDBRANCH   7   8
ENDBRANCH   6   7
ENDBRANCH   5   6
ENDBRANCH   4   5
ENDBRANCH   3   4
ENDBRANCH   1   3
BRANCH   1  18
ATOM     18  C   UNL     1     -31.245   8.953   6.843  1.00  0.00    +0.075 C 
BRANCH  18  19
ATOM     19  C   UNL     1     -32.011   9.880   7.790  1.00  0.00    +0.008 C 
BRANCH  19  20
ATOM     20  C   UNL     1     -31.537  11.337   7.692  1.00  0.00    +0.000 C 
BRANCH  20  21
ATOM     21  C   UNL     1     -30.882  11.669   6.346  1.00  0.00    +0.000 C 
BRANCH  21  22
ATOM     22  C   UNL     1     -29.350  11.614   6.406  1.00  0.00    +0.000 C 
BRANCH  22  23
ATOM     23  C   UNL     1     -28.676  12.589   5.434  1.00  0.00    +0.000 C 
BRANCH  23  24
ATOM     24  C   UNL     1     -27.231  12.213   5.068  1.00  0.00    +0.000 C 
BRANCH  24  25
ATOM     25  C   UNL     1     -26.690  10.967   5.784  1.00  0.00    +0.000 C 
BRANCH  25  26
ATOM     26  C   UNL     1     -26.901   9.680   4.979  1.00  0.00    -0.000 C 
BRANCH  26  27
ATOM     27  C   UNL     1     -26.606   8.405   5.776  1.00  0.00    -0.000 C 
BRANCH  27  28
ATOM     28  C   UNL     1     -27.224   8.327   7.175  1.00  0.00    -0.000 C 
BRANCH  28  29
ATOM     29  C   UNL     1     -27.403   6.895   7.683  1.00  0.00    -0.000 C 
BRANCH  29  30
ATOM     30  C   UNL     1     -26.080   6.202   8.023  1.00  0.00    -0.000 C 
BRANCH  30  31
ATOM     31  C   UNL     1     -26.255   4.748   8.470  1.00  0.00    -0.003 C 
ATOM     32  C   UNL     1     -27.710   4.433   8.771  1.00  0.00    +0.004 C 
ENDBRANCH  30  31
ENDBRANCH  29  30
ENDBRANCH  28  29
ENDBRANCH  27  28
ENDBRANCH  26  27
ENDBRANCH  25  26
ENDBRANCH  24  25
ENDBRANCH  23  24
ENDBRANCH  22  23
ENDBRANCH  21  22
ENDBRANCH  20  21
ENDBRANCH  19  20
ENDBRANCH  18  19
ENDBRANCH   1  18
TORSDOF 28
ENDMDL
MODEL 7
REMARK VINA RESULT:    -6.958      2.497      7.492
REMARK INTER + INTRA:         -20.764
REMARK INTER:                 -18.385
REMARK INTRA:                  -2.379
REMARK UNBOUND:                -2.417
REMARK SMILES CCCCCCCCCCCCCCCC(=O)CCCCCCCCCCCCCCC
REMARK SMILES IDX 16 1 17 2 15 3 14 4 13 5 12 6 11 7 10 8 9 9 8 10 7 11 6 12
REMARK SMILES IDX 5 13 4 14 3 15 2 16 1 17 18 18 19 19 20 20 21 21 22 22 23 23
REMARK SMILES IDX 24 24 25 25 26 26 27 27 28 28 29 29 30 30 31 31 32 32
REMARK H PARENT
ROOT
ATOM      1  C   UNL     1     -25.274   7.006   7.398  1.00  0.00    +0.132 C 
ATOM      2  O   UNL     1     -24.373   7.488   8.085  1.00  0.00    -0.300 OA
ENDROOT
BRANCH   1   3
ATOM      3  C   UNL     1     -25.534   5.511   7.401  1.00  0.00    +0.075 C 
BRANCH   3   4
ATOM      4  C   UNL     1     -25.438   4.905   8.801  1.00  0.00    +0.008 C 
BRANCH   4   5
ATOM      5  C   UNL     1     -26.510   3.851   9.088  1.00  0.00    +0.000 C 
BRANCH   5   6
ATOM      6  C   UNL     1     -26.032   2.603   9.840  1.00  0.00    +0.000 C 
BRANCH   6   7
ATOM      7  C   UNL     1     -27.165   1.656  10.245  1.00  0.00    +0.000 C 
BRANCH   7   8
ATOM      8  C   UNL     1     -28.131   2.332  11.222  1.00  0.00    +0.000 C 
BRANCH   8   9
ATOM      9  C   UNL     1     -27.585   2.425  12.649  1.00  0.00    +0.000 C 
BRANCH   9  10
ATOM     10  C   UNL     1     -28.421   1.738  13.732  1.00  0.00    +0.000 C 
BRANCH  10  11
ATOM     11  C   UNL     1     -29.148   0.484  13.238  1.00  0.00    -0.000 C 
BRANCH  11  12
ATOM     12  C   UNL     1     -30.655   0.590  13.496  1.00  0.00    -0.000 C 
BRANCH  12  13
ATOM     13  C   UNL     1     -31.509  -0.063  12.405  1.00  0.00    -0.000 C 
BRANCH  13  14
ATOM     14  C   UNL     1     -31.386   0.624  11.044  1.00  0.00    -0.000 C 
BRANCH  14  15
ATOM     15  C   UNL     1     -32.415   1.749  10.899  1.00  0.00    -0.000 C 
BRANCH  15  16
ATOM     16  C   UNL     1     -33.573   1.391   9.966  1.00  0.00    -0.003 C 
ATOM     17  C   UNL     1     -34.102   2.576   9.172  1.00  0.00    +0.004 C 
ENDBRANCH  15  16
ENDBRANCH  14  15
ENDBRANCH  13  14
ENDBRANCH  12  13
ENDBRANCH  11  12
ENDBRANCH  10  11
ENDBRANCH   9  10
ENDBRANCH   8   9
ENDBRANCH   7   8
ENDBRANCH   6   7
ENDBRANCH   5   6
ENDBRANCH   4   5
ENDBRANCH   3   4
ENDBRANCH   1   3
BRANCH   1  18
ATOM     18  C   UNL     1     -26.164   7.871   6.521  1.00  0.00    +0.075 C 
BRANCH  18  19
ATOM     19  C   UNL     1     -25.624   9.292   6.346  1.00  0.00    +0.008 C 
BRANCH  19  20
ATOM     20  C   UNL     1     -26.538  10.162   5.472  1.00  0.00    +0.000 C 
BRANCH  20  21
ATOM     21  C   UNL     1     -28.029   9.936   5.746  1.00  0.00    +0.000 C 
BRANCH  21  22
ATOM     22  C   UNL     1     -28.594  10.918   6.781  1.00  0.00    +0.000 C 
BRANCH  22  23
ATOM     23  C   UNL     1     -29.567  11.935   6.174  1.00  0.00    +0.000 C 
BRANCH  23  24
ATOM     24  C   UNL     1     -31.047  11.643   6.472  1.00  0.00    +0.000 C 
BRANCH  24  25
ATOM     25  C   UNL     1     -31.306  10.932   7.808  1.00  0.00    +0.000 C 
BRANCH  25  26
ATOM     26  C   UNL     1     -32.147   9.660   7.652  1.00  0.00    -0.000 C 
BRANCH  26  27
ATOM     27  C   UNL     1     -31.453   8.564   6.837  1.00  0.00    -0.000 C 
BRANCH  27  28
ATOM     28  C   UNL     1     -32.179   8.106   5.568  1.00  0.00    -0.000 C 
BRANCH  28  29
ATOM     29  C   UNL     1     -32.468   6.603   5.540  1.00  0.00    -0.000 C 
BRANCH  29  30
ATOM     30  C   UNL     1     -33.963   6.274   5.494  1.00  0.00    -0.000 C 
BRANCH  30  31
ATOM     31  C   UNL     1     -34.390   5.249   6.547  1.00  0.00    -0.003 C 
ATOM     32  C   UNL     1     -34.858   5.927   7.823  1.00  0.00    +0.004 C 
ENDBRANCH  30  31
ENDBRANCH  29  30
ENDBRANCH  28  29
ENDBRANCH  27  28
ENDBRANCH  26  27
ENDBRANCH  25  26
ENDBRANCH  24  25
ENDBRANCH  23  24
ENDBRANCH  22  23
ENDBRANCH  21  22
ENDBRANCH  20  21
ENDBRANCH  19  20
ENDBRANCH  18  19
ENDBRANCH   1  18
TORSDOF 28
ENDMDL
MODEL 8
REMARK VINA RESULT:    -6.818      2.175      7.954
REMARK INTER + INTRA:         -20.394
REMARK INTER:                 -17.734
REMARK INTRA:                  -2.660
REMARK UNBOUND:                -2.417
REMARK SMILES CCCCCCCCCCCCCCCC(=O)CCCCCCCCCCCCCCC
REMARK SMILES IDX 16 1 17 2 15 3 14 4 13 5 12 6 11 7 10 8 9 9 8 10 7 11 6 12
REMARK SMILES IDX 5 13 4 14 3 15 2 16 1 17 18 18 19 19 20 20 21 21 22 22 23 23
REMARK SMILES IDX 24 24 25 25 26 26 27 27 28 28 29 29 30 30 31 31 32 32
REMARK H PARENT
ROOT
ATOM      1  C   UNL     1     -32.974   6.607   6.578  1.00  0.00    +0.132 C 
ATOM      2  O   UNL     1     -33.253   6.228   5.439  1.00  0.00    -0.300 OA
ENDROOT
BRANCH   1   3
ATOM      3  C   UNL     1     -33.910   6.324   7.738  1.00  0.00    +0.075 C 
BRANCH   3   4
ATOM      4  C   UNL     1     -35.024   5.347   7.363  1.00  0.00    +0.008 C 
BRANCH   4   5
ATOM      5  C   UNL     1     -35.780   4.785   8.570  1.00  0.00    +0.000 C 
BRANCH   5   6
ATOM      6  C   UNL     1     -36.242   5.817   9.606  1.00  0.00    +0.000 C 
BRANCH   6   7
ATOM      7  C   UNL     1     -36.060   5.357  11.056  1.00  0.00    +0.000 C 
BRANCH   7   8
ATOM      8  C   UNL     1     -34.637   4.849  11.303  1.00  0.00    +0.000 C 
BRANCH   8   9
ATOM      9  C   UNL     1     -34.481   3.344  11.071  1.00  0.00    +0.000 C 
BRANCH   9  10
ATOM     10  C   UNL     1     -33.074   2.865  10.700  1.00  0.00    +0.000 C 
BRANCH  10  11
ATOM     11  C   UNL     1     -32.638   1.610  11.459  1.00  0.00    -0.000 C 
BRANCH  11  12
ATOM     12  C   UNL     1     -32.091   0.551  10.495  1.00  0.00    -0.000 C 
BRANCH  12  13
ATOM     13  C   UNL     1     -30.571   0.611  10.321  1.00  0.00    -0.000 C 
BRANCH  13  14
ATOM     14  C   UNL     1     -29.853   1.313  11.475  1.00  0.00    -0.000 C 
BRANCH  14  15
ATOM     15  C   UNL     1     -29.214   0.297  12.427  1.00  0.00    -0.000 C 
BRANCH  15  16
ATOM     16  C   UNL     1     -30.150  -0.147  13.552  1.00  0.00    -0.003 C 
ATOM     17  C   UNL     1     -30.234   0.847  14.701  1.00  0.00    +0.004 C 
ENDBRANCH  15  16
ENDBRANCH  14  15
ENDBRANCH  13  14
ENDBRANCH  12  13
ENDBRANCH  11  12
ENDBRANCH  10  11
ENDBRANCH   9  10
ENDBRANCH   8   9
ENDBRANCH   7   8
ENDBRANCH   6   7
ENDBRANCH   5   6
ENDBRANCH   4   5
ENDBRANCH   3   4
ENDBRANCH   1   3
BRANCH   1  18
ATOM     18  C   UNL     1     -31.694   7.367   6.879  1.00  0.00    +0.075 C 
BRANCH  18  19
ATOM     19  C   UNL     1     -31.787   8.852   6.520  1.00  0.00    +0.008 C 
BRANCH  19  20
ATOM     20  C   UNL     1     -32.147   9.726   7.730  1.00  0.00    +0.000 C 
BRANCH  20  21
ATOM     21  C   UNL     1     -31.443  11.088   7.722  1.00  0.00    +0.000 C 
BRANCH  21  22
ATOM     22  C   UNL     1     -30.965  11.496   6.322  1.00  0.00    +0.000 C 
BRANCH  22  23
ATOM     23  C   UNL     1     -29.596  12.183   6.333  1.00  0.00    +0.000 C 
BRANCH  23  24
ATOM     24  C   UNL     1     -28.431  11.269   5.919  1.00  0.00    +0.000 C 
BRANCH  24  25
ATOM     25  C   UNL     1     -28.029  10.223   6.968  1.00  0.00    +0.000 C 
BRANCH  25  26
ATOM     26  C   UNL     1     -28.222   8.784   6.478  1.00  0.00    -0.000 C 
BRANCH  26  27
ATOM     27  C   UNL     1     -27.579   7.735   7.391  1.00  0.00    -0.000 C 
BRANCH  27  28
ATOM     28  C   UNL     1     -26.136   7.345   7.057  1.00  0.00    -0.000 C 
BRANCH  28  29
ATOM     29  C   UNL     1     -25.803   5.891   7.400  1.00  0.00    -0.000 C 
BRANCH  29  30
ATOM     30  C   UNL     1     -26.408   5.429   8.730  1.00  0.00    -0.000 C 
BRANCH  30  31
ATOM     31  C   UNL     1     -26.933   3.992   8.689  1.00  0.00    -0.003 C 
ATOM     32  C   UNL     1     -28.360   3.908   9.206  1.00  0.00    +0.004 C 
ENDBRANCH  30  31
ENDBRANCH  29  30
ENDBRANCH  28  29
ENDBRANCH  27  28
ENDBRANCH  26  27
ENDBRANCH  25  26
ENDBRANCH  24  25
ENDBRANCH  23  24
ENDBRANCH  22  23
ENDBRANCH  21  22
ENDBRANCH  20  21
ENDBRANCH  19  20
ENDBRANCH  18  19
ENDBRANCH   1  18
TORSDOF 28
ENDMDL
MODEL 9
REMARK VINA RESULT:    -6.803      2.605      7.542
REMARK INTER + INTRA:         -20.355
REMARK INTER:                 -17.176
REMARK INTRA:                  -3.179
REMARK UNBOUND:                -2.417
REMARK SMILES CCCCCCCCCCCCCCCC(=O)CCCCCCCCCCCCCCC
REMARK SMILES IDX 16 1 17 2 15 3 14 4 13 5 12 6 11 7 10 8 9 9 8 10 7 11 6 12
REMARK SMILES IDX 5 13 4 14 3 15 2 16 1 17 18 18 19 19 20 20 21 21 22 22 23 23
REMARK SMILES IDX 24 24 25 25 26 26 27 27 28 28 29 29 30 30 31 31 32 32
REMARK H PARENT
ROOT
ATOM      1  C   UNL     1     -25.811   5.862   8.305  1.00  0.00    +0.132 C 
ATOM      2  O   UNL     1     -24.696   6.367   8.438  1.00  0.00    -0.300 OA
ENDROOT
BRANCH   1   3
ATOM      3  C   UNL     1     -26.010   4.367   8.485  1.00  0.00    +0.075 C 
BRANCH   3   4
ATOM      4  C   UNL     1     -26.619   4.020   9.843  1.00  0.00    +0.008 C 
BRANCH   4   5
ATOM      5  C   UNL     1     -25.595   3.969  10.979  1.00  0.00    +0.000 C 
BRANCH   5   6
ATOM      6  C   UNL     1     -26.152   3.609  12.362  1.00  0.00    +0.000 C 
BRANCH   6   7
ATOM      7  C   UNL     1     -26.658   2.167  12.465  1.00  0.00    +0.000 C 
BRANCH   7   8
ATOM      8  C   UNL     1     -28.019   2.105  13.163  1.00  0.00    +0.000 C 
BRANCH   8   9
ATOM      9  C   UNL     1     -28.911   0.970  12.654  1.00  0.00    +0.000 C 
BRANCH   9  10
ATOM     10  C   UNL     1     -28.215  -0.102  11.811  1.00  0.00    +0.000 C 
BRANCH  10  11
ATOM     11  C   UNL     1     -28.424   0.076  10.305  1.00  0.00    -0.000 C 
BRANCH  11  12
ATOM     12  C   UNL     1     -27.082   0.093   9.565  1.00  0.00    -0.000 C 
BRANCH  12  13
ATOM     13  C   UNL     1     -26.292  -1.211   9.702  1.00  0.00    -0.000 C 
BRANCH  13  14
ATOM     14  C   UNL     1     -24.799  -0.995   9.951  1.00  0.00    -0.000 C 
BRANCH  14  15
ATOM     15  C   UNL     1     -24.450   0.496   9.956  1.00  0.00    -0.000 C 
BRANCH  15  16
ATOM     16  C   UNL     1     -23.541   0.900  11.119  1.00  0.00    -0.003 C 
ATOM     17  C   UNL     1     -22.340   1.730  10.690  1.00  0.00    +0.004 C 
ENDBRANCH  15  16
ENDBRANCH  14  15
ENDBRANCH  13  14
ENDBRANCH  12  13
ENDBRANCH  11  12
ENDBRANCH  10  11
ENDBRANCH   9  10
ENDBRANCH   8   9
ENDBRANCH   7   8
ENDBRANCH   6   7
ENDBRANCH   5   6
ENDBRANCH   4   5
ENDBRANCH   3   4
ENDBRANCH   1   3
BRANCH   1  18
ATOM     18  C   UNL     1     -27.033   6.695   7.960  1.00  0.00    +0.075 C 
BRANCH  18  19
ATOM     19  C   UNL     1     -26.795   7.634   6.775  1.00  0.00    +0.008 C 
BRANCH  19  20
ATOM     20  C   UNL     1     -26.895   9.114   7.172  1.00  0.00    +0.000 C 
BRANCH  20  21
ATOM     21  C   UNL     1     -25.783   9.978   6.566  1.00  0.00    +0.000 C 
BRANCH  21  22
ATOM     22  C   UNL     1     -26.329  11.112   5.688  1.00  0.00    +0.000 C 
BRANCH  22  23
ATOM     23  C   UNL     1     -27.838  11.005   5.441  1.00  0.00    +0.000 C 
BRANCH  23  24
ATOM     24  C   UNL     1     -28.661  12.134   6.083  1.00  0.00    +0.000 C 
BRANCH  24  25
ATOM     25  C   UNL     1     -30.121  11.772   6.388  1.00  0.00    +0.000 C 
BRANCH  25  26
ATOM     26  C   UNL     1     -30.252  10.557   7.313  1.00  0.00    -0.000 C 
BRANCH  26  27
ATOM     27  C   UNL     1     -30.507   9.243   6.567  1.00  0.00    -0.000 C 
BRANCH  27  28
ATOM     28  C   UNL     1     -31.141   8.115   7.386  1.00  0.00    -0.000 C 
BRANCH  28  29
ATOM     29  C   UNL     1     -32.127   7.261   6.586  1.00  0.00    -0.000 C 
BRANCH  29  30
ATOM     30  C   UNL     1     -33.493   7.119   7.264  1.00  0.00    -0.000 C 
BRANCH  30  31
ATOM     31  C   UNL     1     -33.916   5.662   7.474  1.00  0.00    -0.003 C 
ATOM     32  C   UNL     1     -33.214   5.049   8.673  1.00  0.00    +0.004 C 
ENDBRANCH  30  31
ENDBRANCH  29  30
ENDBRANCH  28  29
ENDBRANCH  27  28
ENDBRANCH  26  27
ENDBRANCH  25  26
ENDBRANCH  24  25
ENDBRANCH  23  24
ENDBRANCH  22  23
ENDBRANCH  21  22
ENDBRANCH  20  21
ENDBRANCH  19  20
ENDBRANCH  18  19
ENDBRANCH   1  18
TORSDOF 28
ENDMDL
