REMARK SMILES CC(C)(C)[C@@H](Br)C(=O)Nc1ccccc1
REMARK SMILES IDX 5 1 6 2 2 3 1 4 3 5 4 6 7 7 8 8 9 9 10 11 11 12 15 13 12 14
REMARK SMILES IDX 14 15 13 16
REMARK H PARENT 9 10
ROOT
ATOM      1  C   UNL     1      -1.495  -0.185  -0.525  1.00  0.00    +0.152 C 
ATOM      2 Br   UNL     1      -1.779   0.383  -2.395  1.00  0.00    -0.078 Br
ENDROOT
BRANCH   1   3
ATOM      3  C   UNL     1      -2.620   0.317   0.424  1.00  0.00    -0.017 C 
ATOM      4  C   UNL     1      -2.759   1.851   0.476  1.00  0.00    +0.012 C 
ATOM      5  C   UNL     1      -2.350  -0.202   1.856  1.00  0.00    +0.012 C 
ATOM      6  C   UNL     1      -3.985  -0.275  -0.005  1.00  0.00    +0.012 C 
ENDBRANCH   1   3
BRANCH   1   7
ATOM      7  C   UNL     1      -0.044   0.216  -0.195  1.00  0.00    +0.238 C 
ATOM      8  O   UNL     1       0.232   1.049   0.662  1.00  0.00    -0.273 OA
ATOM      9  N   UNL     1       0.883  -0.492  -0.953  1.00  0.00    -0.325 N 
ATOM     10  H   UNL     1       0.508  -1.055  -1.706  1.00  0.00    +0.169 HD
BRANCH   9  11
ATOM     11  C   UNL     1       2.290  -0.432  -0.875  1.00  0.00    +0.041 A 
ATOM     12  C   UNL     1       3.012  -1.177  -1.818  1.00  0.00    +0.026 A 
ATOM     13  C   UNL     1       2.992   0.305   0.079  1.00  0.00    +0.026 A 
ATOM     14  C   UNL     1       4.410  -1.178  -1.809  1.00  0.00    +0.002 A 
ATOM     15  C   UNL     1       4.391   0.303   0.089  1.00  0.00    +0.002 A 
ATOM     16  C   UNL     1       5.099  -0.437  -0.854  1.00  0.00    +0.000 A 
ENDBRANCH   9  11
ENDBRANCH   1   7
TORSDOF 3
