MODEL 1
REMARK VINA RESULT:    -7.003      0.000      0.000
REMARK INTER + INTRA:         -11.341
REMARK INTER:                 -10.482
REMARK INTRA:                  -0.858
REMARK UNBOUND:                -0.858
REMARK SMILES CCOC(=O)C(=O)N(CCC(=O)O)c1ccccc1
REMARK SMILES IDX 8 1 6 2 7 3 4 4 5 5 3 6 2 7 1 8 9 9 10 10 11 11 12 12 13 13
REMARK SMILES IDX 14 15 15 16 19 17 16 18 18 19 17 20
REMARK H PARENT 13 14
ROOT
ATOM      1  N   UNL     1     -26.121   1.489  10.961  1.00  0.00    -0.302 N 
ENDROOT
BRANCH   1   2
ATOM      2  C   UNL     1     -26.227   1.909   9.624  1.00  0.00    +0.336 C 
ATOM      3  O   UNL     1     -25.998   1.190   8.654  1.00  0.00    -0.261 OA
BRANCH   2   4
ATOM      4  C   UNL     1     -26.533   3.393   9.369  1.00  0.00    +0.397 C 
ATOM      5  O   UNL     1     -27.554   3.935   9.750  1.00  0.00    -0.240 OA
BRANCH   4   6
ATOM      6  O   UNL     1     -25.500   3.952   8.697  1.00  0.00    -0.459 OA
BRANCH   6   7
ATOM      7  C   UNL     1     -25.488   5.385   8.670  1.00  0.00    +0.230 C 
ATOM      8  C   UNL     1     -25.484   5.887   7.239  1.00  0.00    +0.049 C 
ENDBRANCH   6   7
ENDBRANCH   4   6
ENDBRANCH   2   4
ENDBRANCH   1   2
BRANCH   1   9
ATOM      9  C   UNL     1     -24.782   1.109  11.430  1.00  0.00    +0.138 C 
BRANCH   9  10
ATOM     10  C   UNL     1     -23.713   2.097  10.973  1.00  0.00    +0.144 C 
BRANCH  10  11
ATOM     11  C   UNL     1     -22.614   1.418  10.213  1.00  0.00    +0.305 C 
ATOM     12  O   UNL     1     -21.531   1.086  10.666  1.00  0.00    -0.252 OA
BRANCH  11  13
ATOM     13  O   UNL     1     -22.874   1.260   8.902  1.00  0.00    -0.481 OA
ATOM     14  H   UNL     1     -23.716   0.757   8.890  1.00  0.00    +0.296 HD
ENDBRANCH  11  13
ENDBRANCH  10  11
ENDBRANCH   9  10
ENDBRANCH   1   9
BRANCH   1  15
ATOM     15  C   UNL     1     -27.244   1.187  11.789  1.00  0.00    +0.044 A 
ATOM     16  C   UNL     1     -27.553   1.978  12.905  1.00  0.00    +0.026 A 
ATOM     17  C   UNL     1     -28.102   0.125  11.472  1.00  0.00    +0.026 A 
ATOM     18  C   UNL     1     -28.669   1.695  13.698  1.00  0.00    +0.002 A 
ATOM     19  C   UNL     1     -29.216  -0.159  12.267  1.00  0.00    +0.002 A 
ATOM     20  C   UNL     1     -29.498   0.624  13.381  1.00  0.00    +0.000 A 
ENDBRANCH   1  15
TORSDOF 9
ENDMDL
MODEL 2
REMARK VINA RESULT:    -6.890      1.713      2.432
REMARK INTER + INTRA:         -11.172
REMARK INTER:                  -9.940
REMARK INTRA:                  -1.232
REMARK UNBOUND:                -0.858
REMARK SMILES CCOC(=O)C(=O)N(CCC(=O)O)c1ccccc1
REMARK SMILES IDX 8 1 6 2 7 3 4 4 5 5 3 6 2 7 1 8 9 9 10 10 11 11 12 12 13 13
REMARK SMILES IDX 14 15 15 16 19 17 16 18 18 19 17 20
REMARK H PARENT 13 14
ROOT
ATOM      1  N   UNL     1     -27.984   1.581  11.107  1.00  0.00    -0.302 N 
ENDROOT
BRANCH   1   2
ATOM      2  C   UNL     1     -27.715   2.864  10.602  1.00  0.00    +0.336 C 
ATOM      3  O   UNL     1     -28.451   3.469   9.825  1.00  0.00    -0.261 OA
BRANCH   2   4
ATOM      4  C   UNL     1     -26.359   3.495  10.954  1.00  0.00    +0.397 C 
ATOM      5  O   UNL     1     -26.065   3.853  12.080  1.00  0.00    -0.240 OA
BRANCH   4   6
ATOM      6  O   UNL     1     -25.593   3.554   9.841  1.00  0.00    -0.459 OA
BRANCH   6   7
ATOM      7  C   UNL     1     -25.085   4.854   9.511  1.00  0.00    +0.230 C 
ATOM      8  C   UNL     1     -25.732   5.367   8.240  1.00  0.00    +0.049 C 
ENDBRANCH   6   7
ENDBRANCH   4   6
ENDBRANCH   2   4
ENDBRANCH   1   2
BRANCH   1   9
ATOM      9  C   UNL     1     -27.546   0.444  10.287  1.00  0.00    +0.138 C 
BRANCH   9  10
ATOM     10  C   UNL     1     -26.290  -0.216  10.846  1.00  0.00    +0.144 C 
BRANCH  10  11
ATOM     11  C   UNL     1     -25.087   0.063   9.994  1.00  0.00    +0.305 C 
ATOM     12  O   UNL     1     -23.933  -0.210  10.277  1.00  0.00    -0.252 OA
BRANCH  11  13
ATOM     13  O   UNL     1     -25.363   0.748   8.869  1.00  0.00    -0.481 OA
ATOM     14  H   UNL     1     -24.689   0.430   8.230  1.00  0.00    +0.296 HD
ENDBRANCH  11  13
ENDBRANCH  10  11
ENDBRANCH   9  10
ENDBRANCH   1   9
BRANCH   1  15
ATOM     15  C   UNL     1     -28.846   1.330  12.217  1.00  0.00    +0.044 A 
ATOM     16  C   UNL     1     -30.131   0.801  12.029  1.00  0.00    +0.026 A 
ATOM     17  C   UNL     1     -28.406   1.550  13.529  1.00  0.00    +0.026 A 
ATOM     18  C   UNL     1     -30.962   0.530  13.120  1.00  0.00    +0.002 A 
ATOM     19  C   UNL     1     -29.238   1.283  14.619  1.00  0.00    +0.002 A 
ATOM     20  C   UNL     1     -30.518   0.775  14.415  1.00  0.00    +0.000 A 
ENDBRANCH   1  15
TORSDOF 9
ENDMDL
MODEL 3
REMARK VINA RESULT:    -6.662      7.941     10.500
REMARK INTER + INTRA:         -10.832
REMARK INTER:                  -9.670
REMARK INTRA:                  -1.161
REMARK UNBOUND:                -0.858
REMARK SMILES CCOC(=O)C(=O)N(CCC(=O)O)c1ccccc1
REMARK SMILES IDX 8 1 6 2 7 3 4 4 5 5 3 6 2 7 1 8 9 9 10 10 11 11 12 12 13 13
REMARK SMILES IDX 14 15 15 16 19 17 16 18 18 19 17 20
REMARK H PARENT 13 14
ROOT
ATOM      1  N   UNL     1     -34.091   5.466   8.426  1.00  0.00    -0.302 N 
ENDROOT
BRANCH   1   2
ATOM      2  C   UNL     1     -35.478   5.391   8.633  1.00  0.00    +0.336 C 
ATOM      3  O   UNL     1     -36.196   6.362   8.862  1.00  0.00    -0.261 OA
BRANCH   2   4
ATOM      4  C   UNL     1     -36.112   3.992   8.693  1.00  0.00    +0.397 C 
ATOM      5  O   UNL     1     -36.355   3.331   7.700  1.00  0.00    -0.240 OA
BRANCH   4   6
ATOM      6  O   UNL     1     -36.316   3.650   9.985  1.00  0.00    -0.459 OA
BRANCH   6   7
ATOM      7  C   UNL     1     -37.679   3.384  10.343  1.00  0.00    +0.230 C 
ATOM      8  C   UNL     1     -38.260   4.553  11.115  1.00  0.00    +0.049 C 
ENDBRANCH   6   7
ENDBRANCH   4   6
ENDBRANCH   2   4
ENDBRANCH   1   2
BRANCH   1   9
ATOM      9  C   UNL     1     -33.233   5.118   9.567  1.00  0.00    +0.138 C 
BRANCH   9  10
ATOM     10  C   UNL     1     -32.358   3.903   9.276  1.00  0.00    +0.144 C 
BRANCH  10  11
ATOM     11  C   UNL     1     -32.940   2.645   9.850  1.00  0.00    +0.305 C 
ATOM     12  O   UNL     1     -32.924   1.546   9.322  1.00  0.00    -0.252 OA
BRANCH  11  13
ATOM     13  O   UNL     1     -33.594   2.827  11.011  1.00  0.00    -0.481 OA
ATOM     14  H   UNL     1     -33.989   3.721  10.919  1.00  0.00    +0.296 HD
ENDBRANCH  11  13
ENDBRANCH  10  11
ENDBRANCH   9  10
ENDBRANCH   1   9
BRANCH   1  15
ATOM     15  C   UNL     1     -33.490   6.077   7.284  1.00  0.00    +0.044 A 
ATOM     16  C   UNL     1     -33.993   5.851   5.995  1.00  0.00    +0.026 A 
ATOM     17  C   UNL     1     -32.416   6.966   7.430  1.00  0.00    +0.026 A 
ATOM     18  C   UNL     1     -33.419   6.472   4.882  1.00  0.00    +0.002 A 
ATOM     19  C   UNL     1     -31.841   7.584   6.317  1.00  0.00    +0.002 A 
ATOM     20  C   UNL     1     -32.340   7.335   5.042  1.00  0.00    +0.000 A 
ENDBRANCH   1  15
TORSDOF 9
ENDMDL
MODEL 4
REMARK VINA RESULT:    -6.630      2.330      3.984
REMARK INTER + INTRA:         -10.784
REMARK INTER:                  -9.565
REMARK INTRA:                  -1.219
REMARK UNBOUND:                -0.858
REMARK SMILES CCOC(=O)C(=O)N(CCC(=O)O)c1ccccc1
REMARK SMILES IDX 8 1 6 2 7 3 4 4 5 5 3 6 2 7 1 8 9 9 10 10 11 11 12 12 13 13
REMARK SMILES IDX 14 15 15 16 19 17 16 18 18 19 17 20
REMARK H PARENT 13 14
ROOT
ATOM      1  N   UNL     1     -27.526  -0.243  11.182  1.00  0.00    -0.302 N 
ENDROOT
BRANCH   1   2
ATOM      2  C   UNL     1     -26.458  -0.681  10.380  1.00  0.00    +0.336 C 
ATOM      3  O   UNL     1     -26.132  -1.859  10.248  1.00  0.00    -0.261 OA
BRANCH   2   4
ATOM      4  C   UNL     1     -25.577   0.393   9.725  1.00  0.00    +0.397 C 
ATOM      5  O   UNL     1     -25.976   1.133   8.844  1.00  0.00    -0.240 OA
BRANCH   4   6
ATOM      6  O   UNL     1     -24.352   0.374  10.297  1.00  0.00    -0.459 OA
BRANCH   6   7
ATOM      7  C   UNL     1     -23.461   1.416   9.878  1.00  0.00    +0.230 C 
ATOM      8  C   UNL     1     -23.126   2.326  11.045  1.00  0.00    +0.049 C 
ENDBRANCH   6   7
ENDBRANCH   4   6
ENDBRANCH   2   4
ENDBRANCH   1   2
BRANCH   1   9
ATOM      9  C   UNL     1     -27.177   0.519  12.388  1.00  0.00    +0.138 C 
BRANCH   9  10
ATOM     10  C   UNL     1     -27.902   1.859  12.449  1.00  0.00    +0.144 C 
BRANCH  10  11
ATOM     11  C   UNL     1     -27.096   2.959  11.825  1.00  0.00    +0.305 C 
ATOM     12  O   UNL     1     -26.235   3.619  12.383  1.00  0.00    -0.252 OA
BRANCH  11  13
ATOM     13  O   UNL     1     -27.456   3.249  10.562  1.00  0.00    -0.481 OA
ATOM     14  H   UNL     1     -27.386   4.227  10.517  1.00  0.00    +0.296 HD
ENDBRANCH  11  13
ENDBRANCH  10  11
ENDBRANCH   9  10
ENDBRANCH   1   9
BRANCH   1  15
ATOM     15  C   UNL     1     -28.872  -0.692  11.026  1.00  0.00    +0.044 A 
ATOM     16  C   UNL     1     -29.497  -1.464  12.016  1.00  0.00    +0.026 A 
ATOM     17  C   UNL     1     -29.624  -0.322   9.902  1.00  0.00    +0.026 A 
ATOM     18  C   UNL     1     -30.824  -1.879  11.872  1.00  0.00    +0.002 A 
ATOM     19  C   UNL     1     -30.950  -0.741   9.757  1.00  0.00    +0.002 A 
ATOM     20  C   UNL     1     -31.549  -1.521  10.740  1.00  0.00    +0.000 A 
ENDBRANCH   1  15
TORSDOF 9
ENDMDL
MODEL 5
REMARK VINA RESULT:    -6.596      1.755      3.478
REMARK INTER + INTRA:         -10.732
REMARK INTER:                  -9.745
REMARK INTRA:                  -0.987
REMARK UNBOUND:                -0.858
REMARK SMILES CCOC(=O)C(=O)N(CCC(=O)O)c1ccccc1
REMARK SMILES IDX 8 1 6 2 7 3 4 4 5 5 3 6 2 7 1 8 9 9 10 10 11 11 12 12 13 13
REMARK SMILES IDX 14 15 15 16 19 17 16 18 18 19 17 20
REMARK H PARENT 13 14
ROOT
ATOM      1  N   UNL     1     -26.814   1.123  11.713  1.00  0.00    -0.302 N 
ENDROOT
BRANCH   1   2
ATOM      2  C   UNL     1     -26.272   0.108  10.907  1.00  0.00    +0.336 C 
ATOM      3  O   UNL     1     -26.409  -1.094  11.123  1.00  0.00    -0.261 OA
BRANCH   2   4
ATOM      4  C   UNL     1     -25.353   0.536   9.752  1.00  0.00    +0.397 C 
ATOM      5  O   UNL     1     -25.757   1.122   8.764  1.00  0.00    -0.240 OA
BRANCH   4   6
ATOM      6  O   UNL     1     -24.081   0.174  10.037  1.00  0.00    -0.459 OA
BRANCH   6   7
ATOM      7  C   UNL     1     -23.071   1.106   9.630  1.00  0.00    +0.230 C 
ATOM      8  C   UNL     1     -22.022   1.256  10.715  1.00  0.00    +0.049 C 
ENDBRANCH   6   7
ENDBRANCH   4   6
ENDBRANCH   2   4
ENDBRANCH   1   2
BRANCH   1   9
ATOM      9  C   UNL     1     -25.896   2.186  12.143  1.00  0.00    +0.138 C 
BRANCH   9  10
ATOM     10  C   UNL     1     -26.435   3.575  11.815  1.00  0.00    +0.144 C 
BRANCH  10  11
ATOM     11  C   UNL     1     -25.688   4.209  10.679  1.00  0.00    +0.305 C 
ATOM     12  O   UNL     1     -24.478   4.197  10.526  1.00  0.00    -0.252 OA
BRANCH  11  13
ATOM     13  O   UNL     1     -26.470   4.904   9.833  1.00  0.00    -0.481 OA
ATOM     14  H   UNL     1     -27.248   5.146  10.380  1.00  0.00    +0.296 HD
ENDBRANCH  11  13
ENDBRANCH  10  11
ENDBRANCH   9  10
ENDBRANCH   1   9
BRANCH   1  15
ATOM     15  C   UNL     1     -28.105   1.050  12.320  1.00  0.00    +0.044 A 
ATOM     16  C   UNL     1     -29.270   1.024  11.540  1.00  0.00    +0.026 A 
ATOM     17  C   UNL     1     -28.236   0.943  13.711  1.00  0.00    +0.026 A 
ATOM     18  C   UNL     1     -30.530   0.925  12.137  1.00  0.00    +0.002 A 
ATOM     19  C   UNL     1     -29.496   0.849  14.307  1.00  0.00    +0.002 A 
ATOM     20  C   UNL     1     -30.644   0.842  13.521  1.00  0.00    +0.000 A 
ENDBRANCH   1  15
TORSDOF 9
ENDMDL
MODEL 6
REMARK VINA RESULT:    -6.580      7.741     10.647
REMARK INTER + INTRA:         -10.708
REMARK INTER:                  -9.497
REMARK INTRA:                  -1.212
REMARK UNBOUND:                -0.858
REMARK SMILES CCOC(=O)C(=O)N(CCC(=O)O)c1ccccc1
REMARK SMILES IDX 8 1 6 2 7 3 4 4 5 5 3 6 2 7 1 8 9 9 10 10 11 11 12 12 13 13
REMARK SMILES IDX 14 15 15 16 19 17 16 18 18 19 17 20
REMARK H PARENT 13 14
ROOT
ATOM      1  N   UNL     1     -34.561   4.992   8.728  1.00  0.00    -0.302 N 
ENDROOT
BRANCH   1   2
ATOM      2  C   UNL     1     -33.872   4.252   9.704  1.00  0.00    +0.336 C 
ATOM      3  O   UNL     1     -33.628   4.661  10.837  1.00  0.00    -0.261 OA
BRANCH   2   4
ATOM      4  C   UNL     1     -33.290   2.894   9.283  1.00  0.00    +0.397 C 
ATOM      5  O   UNL     1     -33.923   2.066   8.652  1.00  0.00    -0.240 OA
BRANCH   4   6
ATOM      6  O   UNL     1     -32.008   2.809   9.705  1.00  0.00    -0.459 OA
BRANCH   6   7
ATOM      7  C   UNL     1     -31.629   1.546  10.271  1.00  0.00    +0.230 C 
ATOM      8  C   UNL     1     -32.213   1.394  11.662  1.00  0.00    +0.049 C 
ENDBRANCH   6   7
ENDBRANCH   4   6
ENDBRANCH   2   4
ENDBRANCH   1   2
BRANCH   1   9
ATOM      9  C   UNL     1     -36.028   4.976   8.801  1.00  0.00    +0.138 C 
BRANCH   9  10
ATOM     10  C   UNL     1     -36.584   6.249   9.430  1.00  0.00    +0.144 C 
BRANCH  10  11
ATOM     11  C   UNL     1     -37.011   6.029  10.851  1.00  0.00    +0.305 C 
ATOM     12  O   UNL     1     -38.154   5.839  11.232  1.00  0.00    -0.252 OA
BRANCH  11  13
ATOM     13  O   UNL     1     -36.012   6.143  11.744  1.00  0.00    -0.481 OA
ATOM     14  H   UNL     1     -35.493   6.910  11.418  1.00  0.00    +0.296 HD
ENDBRANCH  11  13
ENDBRANCH  10  11
ENDBRANCH   9  10
ENDBRANCH   1   9
BRANCH   1  15
ATOM     15  C   UNL     1     -33.942   5.540   7.564  1.00  0.00    +0.044 A 
ATOM     16  C   UNL     1     -34.319   5.122   6.280  1.00  0.00    +0.026 A 
ATOM     17  C   UNL     1     -32.982   6.555   7.675  1.00  0.00    +0.026 A 
ATOM     18  C   UNL     1     -33.731   5.680   5.141  1.00  0.00    +0.002 A 
ATOM     19  C   UNL     1     -32.391   7.111   6.536  1.00  0.00    +0.002 A 
ATOM     20  C   UNL     1     -32.763   6.672   5.270  1.00  0.00    +0.000 A 
ENDBRANCH   1  15
TORSDOF 9
ENDMDL
MODEL 7
REMARK VINA RESULT:    -6.572      2.944      4.284
REMARK INTER + INTRA:         -10.695
REMARK INTER:                  -9.578
REMARK INTRA:                  -1.117
REMARK UNBOUND:                -0.858
REMARK SMILES CCOC(=O)C(=O)N(CCC(=O)O)c1ccccc1
REMARK SMILES IDX 8 1 6 2 7 3 4 4 5 5 3 6 2 7 1 8 9 9 10 10 11 11 12 12 13 13
REMARK SMILES IDX 14 15 15 16 19 17 16 18 18 19 17 20
REMARK H PARENT 13 14
ROOT
ATOM      1  N   UNL     1     -27.875   1.001  11.520  1.00  0.00    -0.302 N 
ENDROOT
BRANCH   1   2
ATOM      2  C   UNL     1     -26.619   0.635  11.006  1.00  0.00    +0.336 C 
ATOM      3  O   UNL     1     -25.958  -0.317  11.414  1.00  0.00    -0.261 OA
BRANCH   2   4
ATOM      4  C   UNL     1     -25.989   1.556   9.951  1.00  0.00    +0.397 C 
ATOM      5  O   UNL     1     -26.167   1.414   8.755  1.00  0.00    -0.240 OA
BRANCH   4   6
ATOM      6  O   UNL     1     -25.260   2.511  10.571  1.00  0.00    -0.459 OA
BRANCH   6   7
ATOM      7  C   UNL     1     -25.841   3.822  10.578  1.00  0.00    +0.230 C 
ATOM      8  C   UNL     1     -25.226   4.678   9.488  1.00  0.00    +0.049 C 
ENDBRANCH   6   7
ENDBRANCH   4   6
ENDBRANCH   2   4
ENDBRANCH   1   2
BRANCH   1   9
ATOM      9  C   UNL     1     -27.906   1.482  12.908  1.00  0.00    +0.138 C 
BRANCH   9  10
ATOM     10  C   UNL     1     -28.758   0.590  13.804  1.00  0.00    +0.144 C 
BRANCH  10  11
ATOM     11  C   UNL     1     -27.917  -0.335  14.633  1.00  0.00    +0.305 C 
ATOM     12  O   UNL     1     -27.641  -0.185  15.812  1.00  0.00    -0.252 OA
BRANCH  11  13
ATOM     13  O   UNL     1     -27.383  -1.355  13.939  1.00  0.00    -0.481 OA
ATOM     14  H   UNL     1     -26.502  -1.484  14.352  1.00  0.00    +0.296 HD
ENDBRANCH  11  13
ENDBRANCH  10  11
ENDBRANCH   9  10
ENDBRANCH   1   9
BRANCH   1  15
ATOM     15  C   UNL     1     -29.114   0.710  10.872  1.00  0.00    +0.044 A 
ATOM     16  C   UNL     1     -29.411  -0.587  10.429  1.00  0.00    +0.026 A 
ATOM     17  C   UNL     1     -30.090   1.704  10.715  1.00  0.00    +0.026 A 
ATOM     18  C   UNL     1     -30.636  -0.874   9.819  1.00  0.00    +0.002 A 
ATOM     19  C   UNL     1     -31.313   1.417  10.102  1.00  0.00    +0.002 A 
ATOM     20  C   UNL     1     -31.585   0.129   9.652  1.00  0.00    +0.000 A 
ENDBRANCH   1  15
TORSDOF 9
ENDMDL
MODEL 8
REMARK VINA RESULT:    -6.258      2.004      2.777
REMARK INTER + INTRA:         -10.226
REMARK INTER:                  -9.110
REMARK INTRA:                  -1.116
REMARK UNBOUND:                -0.858
REMARK SMILES CCOC(=O)C(=O)N(CCC(=O)O)c1ccccc1
REMARK SMILES IDX 8 1 6 2 7 3 4 4 5 5 3 6 2 7 1 8 9 9 10 10 11 11 12 12 13 13
REMARK SMILES IDX 14 15 15 16 19 17 16 18 18 19 17 20
REMARK H PARENT 13 14
ROOT
ATOM      1  N   UNL     1     -27.935   0.860  10.443  1.00  0.00    -0.302 N 
ENDROOT
BRANCH   1   2
ATOM      2  C   UNL     1     -27.899   2.240  10.700  1.00  0.00    +0.336 C 
ATOM      3  O   UNL     1     -28.568   3.074  10.093  1.00  0.00    -0.261 OA
BRANCH   2   4
ATOM      4  C   UNL     1     -26.871   2.744  11.725  1.00  0.00    +0.397 C 
ATOM      5  O   UNL     1     -26.524   2.093  12.693  1.00  0.00    -0.240 OA
BRANCH   4   6
ATOM      6  O   UNL     1     -26.435   3.970  11.353  1.00  0.00    -0.459 OA
BRANCH   6   7
ATOM      7  C   UNL     1     -25.145   4.001  10.729  1.00  0.00    +0.230 C 
ATOM      8  C   UNL     1     -25.229   4.676   9.373  1.00  0.00    +0.049 C 
ENDBRANCH   6   7
ENDBRANCH   4   6
ENDBRANCH   2   4
ENDBRANCH   1   2
BRANCH   1   9
ATOM      9  C   UNL     1     -26.908   0.330   9.536  1.00  0.00    +0.138 C 
BRANCH   9  10
ATOM     10  C   UNL     1     -25.831  -0.451  10.283  1.00  0.00    +0.144 C 
BRANCH  10  11
ATOM     11  C   UNL     1     -24.521   0.281  10.298  1.00  0.00    +0.305 C 
ATOM     12  O   UNL     1     -23.768   0.377  11.253  1.00  0.00    -0.252 OA
BRANCH  11  13
ATOM     13  O   UNL     1     -24.248   0.933   9.154  1.00  0.00    -0.481 OA
ATOM     14  H   UNL     1     -25.129   1.229   8.838  1.00  0.00    +0.296 HD
ENDBRANCH  11  13
ENDBRANCH  10  11
ENDBRANCH   9  10
ENDBRANCH   1   9
BRANCH   1  15
ATOM     15  C   UNL     1     -29.024   0.012  10.808  1.00  0.00    +0.044 A 
ATOM     16  C   UNL     1     -29.171  -0.452  12.123  1.00  0.00    +0.026 A 
ATOM     17  C   UNL     1     -30.009  -0.329   9.871  1.00  0.00    +0.026 A 
ATOM     18  C   UNL     1     -30.254  -1.259  12.482  1.00  0.00    +0.002 A 
ATOM     19  C   UNL     1     -31.090  -1.139  10.230  1.00  0.00    +0.002 A 
ATOM     20  C   UNL     1     -31.212  -1.607  11.535  1.00  0.00    +0.000 A 
ENDBRANCH   1  15
TORSDOF 9
ENDMDL
MODEL 9
REMARK VINA RESULT:    -6.013      2.324      5.381
REMARK INTER + INTRA:          -9.859
REMARK INTER:                  -8.877
REMARK INTRA:                  -0.982
REMARK UNBOUND:                -0.858
REMARK SMILES CCOC(=O)C(=O)N(CCC(=O)O)c1ccccc1
REMARK SMILES IDX 8 1 6 2 7 3 4 4 5 5 3 6 2 7 1 8 9 9 10 10 11 11 12 12 13 13
REMARK SMILES IDX 14 15 15 16 19 17 16 18 18 19 17 20
REMARK H PARENT 13 14
ROOT
ATOM      1  N   UNL     1     -25.787   2.503  11.047  1.00  0.00    -0.302 N 
ENDROOT
BRANCH   1   2
ATOM      2  C   UNL     1     -27.070   1.939  11.150  1.00  0.00    +0.336 C 
ATOM      3  O   UNL     1     -27.851   1.825  10.208  1.00  0.00    -0.261 OA
BRANCH   2   4
ATOM      4  C   UNL     1     -27.563   1.550  12.552  1.00  0.00    +0.397 C 
ATOM      5  O   UNL     1     -28.098   2.338  13.310  1.00  0.00    -0.240 OA
BRANCH   4   6
ATOM      6  O   UNL     1     -27.321   0.236  12.761  1.00  0.00    -0.459 OA
BRANCH   6   7
ATOM      7  C   UNL     1     -28.483  -0.580  12.962  1.00  0.00    +0.230 C 
ATOM      8  C   UNL     1     -28.885  -1.257  11.666  1.00  0.00    +0.049 C 
ENDBRANCH   6   7
ENDBRANCH   4   6
ENDBRANCH   2   4
ENDBRANCH   1   2
BRANCH   1   9
ATOM      9  C   UNL     1     -25.718   3.961  10.883  1.00  0.00    +0.138 C 
BRANCH   9  10
ATOM     10  C   UNL     1     -25.503   4.364   9.428  1.00  0.00    +0.144 C 
BRANCH  10  11
ATOM     11  C   UNL     1     -26.750   4.927   8.815  1.00  0.00    +0.305 C 
ATOM     12  O   UNL     1     -27.044   6.109   8.751  1.00  0.00    -0.252 OA
BRANCH  11  13
ATOM     13  O   UNL     1     -27.618   3.992   8.388  1.00  0.00    -0.481 OA
ATOM     14  H   UNL     1     -27.665   3.358   9.136  1.00  0.00    +0.296 HD
ENDBRANCH  11  13
ENDBRANCH  10  11
ENDBRANCH   9  10
ENDBRANCH   1   9
BRANCH   1  15
ATOM     15  C   UNL     1     -24.596   1.739  10.854  1.00  0.00    +0.044 A 
ATOM     16  C   UNL     1     -23.330   2.324  10.996  1.00  0.00    +0.026 A 
ATOM     17  C   UNL     1     -24.665   0.367  10.575  1.00  0.00    +0.026 A 
ATOM     18  C   UNL     1     -22.167   1.566  10.832  1.00  0.00    +0.002 A 
ATOM     19  C   UNL     1     -23.501  -0.390  10.408  1.00  0.00    +0.002 A 
ATOM     20  C   UNL     1     -22.252   0.210  10.534  1.00  0.00    +0.000 A 
ENDBRANCH   1  15
TORSDOF 9
ENDMDL
