REMARK SMILES CC(=O)OC[C@H](OC(C)=O)[C@H](OC(C)=O)[C@@H](COC(C)=O)OC(C)=O
REMARK SMILES IDX 11 1 16 2 17 3 18 4 19 5 21 6 20 7 22 8 23 9 25 10 24 11
REMARK SMILES IDX 12 12 13 13 15 14 14 15 6 16 5 17 4 18 2 19 3 20 1 21 7 22
REMARK SMILES IDX 8 23 10 24 9 25
REMARK H PARENT
ROOT
ATOM      1  C   UNL     1      -0.373  -0.836   0.698  1.00  0.00    +0.265 C 
ENDROOT
BRANCH   1   2
ATOM      2  C   UNL     1      -1.456  -0.030  -0.054  1.00  0.00    +0.259 C 
BRANCH   2   3
ATOM      3  C   UNL     1      -1.618   1.392   0.501  1.00  0.00    +0.282 C 
BRANCH   3   4
ATOM      4  O   UNL     1      -2.818   1.957  -0.063  1.00  0.00    -0.462 OA
BRANCH   4   5
ATOM      5  C   UNL     1      -3.068   3.238   0.320  1.00  0.00    +0.302 C 
ATOM      6  O   UNL     1      -2.380   3.897   1.085  1.00  0.00    -0.253 OA
ATOM      7  C   UNL     1      -4.323   3.732  -0.332  1.00  0.00    +0.139 C 
ENDBRANCH   4   5
ENDBRANCH   3   4
ENDBRANCH   2   3
BRANCH   2   8
ATOM      8  O   UNL     1      -1.136   0.088  -1.460  1.00  0.00    -0.455 OA
BRANCH   8   9
ATOM      9  C   UNL     1      -1.751  -0.778  -2.309  1.00  0.00    +0.303 C 
ATOM     10  O   UNL     1      -2.510  -1.680  -1.988  1.00  0.00    -0.253 OA
ATOM     11  C   UNL     1      -1.347  -0.475  -3.720  1.00  0.00    +0.139 C 
ENDBRANCH   8   9
ENDBRANCH   2   8
ENDBRANCH   1   2
BRANCH   1  12
ATOM     12  O   UNL     1      -0.402  -2.197   0.191  1.00  0.00    -0.454 OA
BRANCH  12  13
ATOM     13  C   UNL     1      -0.235  -3.198   1.097  1.00  0.00    +0.303 C 
ATOM     14  O   UNL     1      -0.027  -3.049   2.292  1.00  0.00    -0.253 OA
ATOM     15  C   UNL     1      -0.332  -4.526   0.411  1.00  0.00    +0.139 C 
ENDBRANCH  12  13
ENDBRANCH   1  12
BRANCH   1  16
ATOM     16  C   UNL     1       1.067  -0.271   0.582  1.00  0.00    +0.259 C 
BRANCH  16  17
ATOM     17  C   UNL     1       1.797  -0.683  -0.707  1.00  0.00    +0.282 C 
BRANCH  17  18
ATOM     18  O   UNL     1       3.033   0.051  -0.847  1.00  0.00    -0.462 OA
BRANCH  18  19
ATOM     19  C   UNL     1       2.904   1.307  -1.356  1.00  0.00    +0.302 C 
ATOM     20  O   UNL     1       1.847   1.828  -1.681  1.00  0.00    -0.253 OA
ATOM     21  C   UNL     1       4.245   1.966  -1.454  1.00  0.00    +0.139 C 
ENDBRANCH  18  19
ENDBRANCH  17  18
ENDBRANCH  16  17
BRANCH  16  22
ATOM     22  O   UNL     1       1.880  -0.800   1.669  1.00  0.00    -0.455 OA
BRANCH  22  23
ATOM     23  C   UNL     1       1.660  -0.247   2.892  1.00  0.00    +0.303 C 
ATOM     24  O   UNL     1       0.868   0.658   3.116  1.00  0.00    -0.253 OA
ATOM     25  C   UNL     1       2.525  -0.902   3.923  1.00  0.00    +0.139 C 
ENDBRANCH  22  23
ENDBRANCH  16  22
ENDBRANCH   1  16
TORSDOF 14
