REMARK SMILES C[C@@H](Cl)C(Cl)(Cl)[C@H](O)NC(=O)CCl
REMARK SMILES IDX 7 1 4 2 5 3 6 4 2 5 1 6 3 7 8 8 9 10 10 11 11 12 12 14 13 15
REMARK H PARENT 8 9 9 13
ROOT
ATOM      1  C   UNL     1       0.364  -0.221   0.702  1.00  0.00    +0.249 C 
ENDROOT
BRANCH   1   2
ATOM      2  C   UNL     1      -0.929   0.278  -0.036  1.00  0.00    +0.178 C 
ATOM      3 Cl   UNL     1      -0.652   2.006  -0.569  1.00  0.00    -0.095 Cl
ATOM      4 Cl   UNL     1      -1.176  -0.670  -1.559  1.00  0.00    -0.095 Cl
BRANCH   2   5
ATOM      5  C   UNL     1      -2.182   0.228   0.881  1.00  0.00    +0.118 C 
ATOM      6  C   UNL     1      -3.484   0.713   0.239  1.00  0.00    +0.028 C 
ATOM      7 Cl   UNL     1      -2.487  -1.433   1.522  1.00  0.00    -0.120 Cl
ENDBRANCH   2   5
ENDBRANCH   1   2
BRANCH   1   8
ATOM      8  O   UNL     1       0.557   0.461   1.933  1.00  0.00    -0.370 OA
ATOM      9  H   UNL     1       1.392   0.100   2.279  1.00  0.00    +0.213 HD
ENDBRANCH   1   8
BRANCH   1  10
ATOM     10  N   UNL     1       1.600   0.004  -0.013  1.00  0.00    -0.327 N 
ATOM     11  C   UNL     1       2.209  -0.995  -0.740  1.00  0.00    +0.236 C 
ATOM     12  O   UNL     1       1.883  -2.175  -0.630  1.00  0.00    -0.274 OA
ATOM     13  H   UNL     1       1.794   0.963  -0.289  1.00  0.00    +0.166 HD
BRANCH  11  14
ATOM     14  C   UNL     1       3.389  -0.572  -1.596  1.00  0.00    +0.209 C 
ATOM     15 Cl   UNL     1       3.156   1.065  -2.253  1.00  0.00    -0.116 Cl
ENDBRANCH  11  14
ENDBRANCH   1  10
TORSDOF 5
