REMARK SMILES CC[C@@H](C)OC(=O)[C@@H](C)OC(=O)OCCOCCOC(=O)O[C@H](C)C(=O)O[C@@H](C)CC
REMARK SMILES IDX 16 1 15 2 14 3 13 4 11 5 12 6 10 7 8 8 9 9 6 10 7 11 5 12
REMARK SMILES IDX 3 13 4 14 2 15 1 16 17 17 18 18 19 19 20 20 21 21 22 22
REMARK SMILES IDX 23 23 24 24 25 25 26 26 27 27 28 28 29 29 30 30 31 31
REMARK H PARENT
ROOT
ATOM      1  O   UNL     1      -0.427  -0.351   1.579  1.00  0.00    -0.374 OA
ENDROOT
BRANCH   1   2
ATOM      2  C   UNL     1      -1.366  -1.213   0.937  1.00  0.00    +0.202 C 
BRANCH   2   3
ATOM      3  C   UNL     1      -2.413  -0.480   0.096  1.00  0.00    +0.265 C 
BRANCH   3   4
ATOM      4  O   UNL     1      -3.343  -1.411  -0.475  1.00  0.00    -0.432 OA
BRANCH   4   5
ATOM      5  C   UNL     1      -4.420  -1.704   0.292  1.00  0.00    +0.509 C 
ATOM      6  O   UNL     1      -4.647  -1.271   1.410  1.00  0.00    -0.203 OA
BRANCH   5   7
ATOM      7  O   UNL     1      -5.207  -2.566  -0.397  1.00  0.00    -0.419 OA
BRANCH   7   8
ATOM      8  C   UNL     1      -6.423  -2.911   0.272  1.00  0.00    +0.286 C 
ATOM      9  C   UNL     1      -7.058  -4.055  -0.509  1.00  0.00    +0.066 C 
BRANCH   8  10
ATOM     10  C   UNL     1      -7.447  -1.776   0.389  1.00  0.00    +0.347 C 
ATOM     11  O   UNL     1      -8.384  -1.786   1.178  1.00  0.00    -0.248 OA
BRANCH  10  12
ATOM     12  O   UNL     1      -7.212  -0.801  -0.535  1.00  0.00    -0.460 OA
BRANCH  12  13
ATOM     13  C   UNL     1      -8.130   0.308  -0.543  1.00  0.00    +0.173 C 
ATOM     14  C   UNL     1      -8.133   0.879  -1.956  1.00  0.00    +0.053 C 
BRANCH  13  15
ATOM     15  C   UNL     1      -7.726   1.347   0.515  1.00  0.00    +0.041 C 
ATOM     16  C   UNL     1      -6.330   1.927   0.331  1.00  0.00    +0.008 C 
ENDBRANCH  13  15
ENDBRANCH  12  13
ENDBRANCH  10  12
ENDBRANCH   8  10
ENDBRANCH   7   8
ENDBRANCH   5   7
ENDBRANCH   4   5
ENDBRANCH   3   4
ENDBRANCH   2   3
ENDBRANCH   1   2
BRANCH   1  17
ATOM     17  C   UNL     1       0.425   0.408   0.725  1.00  0.00    +0.202 C 
BRANCH  17  18
ATOM     18  C   UNL     1       1.399  -0.436  -0.095  1.00  0.00    +0.265 C 
BRANCH  18  19
ATOM     19  O   UNL     1       2.225   0.404  -0.911  1.00  0.00    -0.432 OA
BRANCH  19  20
ATOM     20  C   UNL     1       3.356   0.859  -0.321  1.00  0.00    +0.509 C 
ATOM     21  O   UNL     1       3.707   0.642   0.828  1.00  0.00    -0.203 OA
BRANCH  20  22
ATOM     22  O   UNL     1       4.021   1.625  -1.220  1.00  0.00    -0.419 OA
BRANCH  22  23
ATOM     23  C   UNL     1       5.286   2.111  -0.753  1.00  0.00    +0.286 C 
ATOM     24  C   UNL     1       5.755   3.160  -1.752  1.00  0.00    +0.066 C 
BRANCH  23  25
ATOM     25  C   UNL     1       6.327   0.993  -0.650  1.00  0.00    +0.347 C 
ATOM     26  O   UNL     1       6.169  -0.151  -1.058  1.00  0.00    -0.248 OA
BRANCH  25  27
ATOM     27  O   UNL     1       7.454   1.459  -0.037  1.00  0.00    -0.460 OA
BRANCH  27  28
ATOM     28  C   UNL     1       8.521   0.504   0.143  1.00  0.00    +0.173 C 
ATOM     29  C   UNL     1       9.817   1.307   0.162  1.00  0.00    +0.053 C 
BRANCH  28  30
ATOM     30  C   UNL     1       8.283  -0.264   1.449  1.00  0.00    +0.041 C 
ATOM     31  C   UNL     1       9.312  -1.352   1.708  1.00  0.00    +0.008 C 
ENDBRANCH  28  30
ENDBRANCH  27  28
ENDBRANCH  25  27
ENDBRANCH  23  25
ENDBRANCH  22  23
ENDBRANCH  20  22
ENDBRANCH  19  20
ENDBRANCH  18  19
ENDBRANCH  17  18
ENDBRANCH   1  17
TORSDOF 20
