REMARK SMILES CCOC(=O)CCCCCN
REMARK SMILES IDX 7 1 6 2 4 3 5 4 3 5 2 6 1 7 8 8 9 9 10 10 11 11
REMARK H PARENT 11 12 11 13
ROOT
ATOM      1  C   UNL     1      -0.279  -0.788  -0.764  1.00  0.00    +0.012 C 
ENDROOT
BRANCH   1   2
ATOM      2  C   UNL     1       0.496   0.251   0.046  1.00  0.00    +0.123 C 
BRANCH   2   3
ATOM      3  C   UNL     1       1.873  -0.244   0.423  1.00  0.00    +0.305 C 
ATOM      4  O   UNL     1       2.304  -1.370   0.218  1.00  0.00    -0.252 OA
BRANCH   3   5
ATOM      5  O   UNL     1       2.559   0.761   1.039  1.00  0.00    -0.466 OA
BRANCH   5   6
ATOM      6  C   UNL     1       3.890   0.439   1.467  1.00  0.00    +0.229 C 
ATOM      7  C   UNL     1       4.874   0.664   0.334  1.00  0.00    +0.049 C 
ENDBRANCH   5   6
ENDBRANCH   3   5
ENDBRANCH   2   3
ENDBRANCH   1   2
BRANCH   1   8
ATOM      8  C   UNL     1      -1.626  -0.276  -1.281  1.00  0.00    +0.002 C 
BRANCH   8   9
ATOM      9  C   UNL     1      -2.631   0.023  -0.165  1.00  0.00    +0.015 C 
BRANCH   9  10
ATOM     10  C   UNL     1      -3.990   0.423  -0.742  1.00  0.00    +0.077 C 
BRANCH  10  11
ATOM     11  N   UNL     1      -4.947   0.709   0.320  1.00  0.00    -0.330 NA
ATOM     12  H   UNL     1      -5.052  -0.112   0.916  1.00  0.00    +0.118 HD
ATOM     13  H   UNL     1      -4.584   1.447   0.922  1.00  0.00    +0.118 HD
ENDBRANCH  10  11
ENDBRANCH   9  10
ENDBRANCH   8   9
ENDBRANCH   1   8
TORSDOF 8
