MODEL 1
REMARK VINA RESULT:    -5.782      0.000      0.000
REMARK INTER + INTRA:          -5.951
REMARK INTER:                  -5.951
REMARK INTRA:                   0.000
REMARK UNBOUND:                 0.000
REMARK SMILES Cc1nn(C)c(N)c1C#N
REMARK SMILES IDX 5 1 4 2 3 3 2 4 1 5 8 6 6 7 9 8 10 9 7 10
REMARK H PARENT 7 11 7 12
ROOT
ATOM      1  C   UNL     1     -26.887   8.334   6.519  1.00  0.00    +0.176 C 
ATOM      2  N   UNL     1     -27.542   9.609   6.350  1.00  0.00    -0.252 N 
ATOM      3  N   UNL     1     -28.820   9.751   6.761  1.00  0.00    -0.175 NA
ATOM      4  C   UNL     1     -29.126  11.015   6.439  1.00  0.00    +0.079 A 
ATOM      5  C   UNL     1     -30.477  11.555   6.730  1.00  0.00    +0.070 C 
ATOM      6  C   UNL     1     -28.031  11.677   5.835  1.00  0.00    +0.117 A 
ATOM      7  C   UNL     1     -27.009  10.752   5.796  1.00  0.00    +0.139 A 
ATOM      8  C   UNL     1     -27.983  13.021   5.367  1.00  0.00    +0.105 C 
ATOM      9  N   UNL     1     -27.948  14.120   4.994  1.00  0.00    -0.192 NA
ENDROOT
BRANCH   7  10
ATOM     10  N   UNL     1     -25.739  10.829   5.334  1.00  0.00    -0.383 N 
ATOM     11  H   UNL     1     -25.224   9.987   5.082  1.00  0.00    +0.158 HD
ATOM     12  H   UNL     1     -25.367  11.663   4.886  1.00  0.00    +0.158 HD
ENDBRANCH   7  10
TORSDOF 1
ENDMDL
MODEL 2
REMARK VINA RESULT:    -5.714      1.614      3.655
REMARK INTER + INTRA:          -5.881
REMARK INTER:                  -5.881
REMARK INTRA:                   0.000
REMARK UNBOUND:                 0.000
REMARK SMILES Cc1nn(C)c(N)c1C#N
REMARK SMILES IDX 5 1 4 2 3 3 2 4 1 5 8 6 6 7 9 8 10 9 7 10
REMARK H PARENT 7 11 7 12
ROOT
ATOM      1  C   UNL     1     -28.372  12.475   5.404  1.00  0.00    +0.176 C 
ATOM      2  N   UNL     1     -27.740  11.259   5.859  1.00  0.00    -0.252 N 
ATOM      3  N   UNL     1     -28.472  10.350   6.536  1.00  0.00    -0.175 NA
ATOM      4  C   UNL     1     -27.598   9.380   6.828  1.00  0.00    +0.079 A 
ATOM      5  C   UNL     1     -28.033   8.185   7.593  1.00  0.00    +0.070 C 
ATOM      6  C   UNL     1     -26.309   9.672   6.322  1.00  0.00    +0.117 A 
ATOM      7  C   UNL     1     -26.424  10.890   5.686  1.00  0.00    +0.139 A 
ATOM      8  C   UNL     1     -25.134   8.875   6.435  1.00  0.00    +0.105 C 
ATOM      9  N   UNL     1     -24.180   8.219   6.524  1.00  0.00    -0.192 NA
ENDROOT
BRANCH   7  10
ATOM     10  N   UNL     1     -25.521  11.650   5.023  1.00  0.00    -0.383 N 
ATOM     11  H   UNL     1     -24.697  11.228   4.597  1.00  0.00    +0.158 HD
ATOM     12  H   UNL     1     -25.758  12.548   4.608  1.00  0.00    +0.158 HD
ENDBRANCH   7  10
TORSDOF 1
ENDMDL
MODEL 3
REMARK VINA RESULT:    -5.489      2.367      3.128
REMARK INTER + INTRA:          -5.650
REMARK INTER:                  -5.650
REMARK INTRA:                   0.000
REMARK UNBOUND:                 0.000
REMARK SMILES Cc1nn(C)c(N)c1C#N
REMARK SMILES IDX 5 1 4 2 3 3 2 4 1 5 8 6 6 7 9 8 10 9 7 10
REMARK H PARENT 7 11 7 12
ROOT
ATOM      1  C   UNL     1     -25.436   5.964   7.817  1.00  0.00    +0.176 C 
ATOM      2  N   UNL     1     -25.934   7.247   7.382  1.00  0.00    -0.252 N 
ATOM      3  N   UNL     1     -27.207   7.590   7.671  1.00  0.00    -0.175 NA
ATOM      4  C   UNL     1     -27.353   8.798   7.112  1.00  0.00    +0.079 A 
ATOM      5  C   UNL     1     -28.648   9.516   7.208  1.00  0.00    +0.070 C 
ATOM      6  C   UNL     1     -26.162   9.225   6.478  1.00  0.00    +0.117 A 
ATOM      7  C   UNL     1     -25.249   8.209   6.674  1.00  0.00    +0.139 A 
ATOM      8  C   UNL     1     -25.940  10.450   5.786  1.00  0.00    +0.105 C 
ATOM      9  N   UNL     1     -25.763  11.453   5.228  1.00  0.00    -0.192 NA
ENDROOT
BRANCH   7  10
ATOM     10  N   UNL     1     -23.957   8.073   6.295  1.00  0.00    -0.383 N 
ATOM     11  H   UNL     1     -23.261   7.702   6.941  1.00  0.00    +0.158 HD
ATOM     12  H   UNL     1     -23.676   7.977   5.322  1.00  0.00    +0.158 HD
ENDBRANCH   7  10
TORSDOF 1
ENDMDL
MODEL 4
REMARK VINA RESULT:    -5.207      1.443      2.868
REMARK INTER + INTRA:          -5.359
REMARK INTER:                  -5.359
REMARK INTRA:                   0.000
REMARK UNBOUND:                 0.000
REMARK SMILES Cc1nn(C)c(N)c1C#N
REMARK SMILES IDX 5 1 4 2 3 3 2 4 1 5 8 6 6 7 9 8 10 9 7 10
REMARK H PARENT 7 11 7 12
ROOT
ATOM      1  C   UNL     1     -26.136   8.717   5.937  1.00  0.00    +0.176 C 
ATOM      2  N   UNL     1     -27.210   9.667   6.111  1.00  0.00    -0.252 N 
ATOM      3  N   UNL     1     -27.148  10.853   5.473  1.00  0.00    -0.175 NA
ATOM      4  C   UNL     1     -28.258  11.492   5.864  1.00  0.00    +0.079 A 
ATOM      5  C   UNL     1     -28.548  12.861   5.371  1.00  0.00    +0.070 C 
ATOM      6  C   UNL     1     -29.031  10.698   6.744  1.00  0.00    +0.117 A 
ATOM      7  C   UNL     1     -28.340   9.512   6.884  1.00  0.00    +0.139 A 
ATOM      8  C   UNL     1     -30.270  11.041   7.358  1.00  0.00    +0.105 C 
ATOM      9  N   UNL     1     -31.283  11.323   7.850  1.00  0.00    -0.192 NA
ENDROOT
BRANCH   7  10
ATOM     10  N   UNL     1     -28.605   8.392   7.596  1.00  0.00    -0.383 N 
ATOM     11  H   UNL     1     -28.889   7.532   7.127  1.00  0.00    +0.158 HD
ATOM     12  H   UNL     1     -28.215   8.222   8.520  1.00  0.00    +0.158 HD
ENDBRANCH   7  10
TORSDOF 1
ENDMDL
MODEL 5
REMARK VINA RESULT:    -5.206      1.808      2.893
REMARK INTER + INTRA:          -5.359
REMARK INTER:                  -5.359
REMARK INTRA:                   0.000
REMARK UNBOUND:                 0.000
REMARK SMILES Cc1nn(C)c(N)c1C#N
REMARK SMILES IDX 5 1 4 2 3 3 2 4 1 5 8 6 6 7 9 8 10 9 7 10
REMARK H PARENT 7 11 7 12
ROOT
ATOM      1  C   UNL     1     -30.783   8.564   7.423  1.00  0.00    +0.176 C 
ATOM      2  N   UNL     1     -29.720   9.424   6.959  1.00  0.00    -0.252 N 
ATOM      3  N   UNL     1     -30.022  10.662   6.516  1.00  0.00    -0.175 NA
ATOM      4  C   UNL     1     -28.842  11.170   6.142  1.00  0.00    +0.079 A 
ATOM      5  C   UNL     1     -28.761  12.542   5.580  1.00  0.00    +0.070 C 
ATOM      6  C   UNL     1     -27.787  10.254   6.363  1.00  0.00    +0.117 A 
ATOM      7  C   UNL     1     -28.376   9.129   6.905  1.00  0.00    +0.139 A 
ATOM      8  C   UNL     1     -26.402  10.445   6.093  1.00  0.00    +0.105 C 
ATOM      9  N   UNL     1     -25.273  10.610   5.877  1.00  0.00    -0.192 NA
ENDROOT
BRANCH   7  10
ATOM     10  N   UNL     1     -27.857   7.948   7.315  1.00  0.00    -0.383 N 
ATOM     11  H   UNL     1     -26.851   7.833   7.431  1.00  0.00    +0.158 HD
ATOM     12  H   UNL     1     -28.392   7.270   7.851  1.00  0.00    +0.158 HD
ENDBRANCH   7  10
TORSDOF 1
ENDMDL
MODEL 6
REMARK VINA RESULT:    -4.983      9.846     11.471
REMARK INTER + INTRA:          -5.129
REMARK INTER:                  -5.129
REMARK INTRA:                   0.000
REMARK UNBOUND:                 0.000
REMARK SMILES Cc1nn(C)c(N)c1C#N
REMARK SMILES IDX 5 1 4 2 3 3 2 4 1 5 8 6 6 7 9 8 10 9 7 10
REMARK H PARENT 7 11 7 12
ROOT
ATOM      1  C   UNL     1     -33.807   4.176   8.861  1.00  0.00    +0.176 C 
ATOM      2  N   UNL     1     -35.159   4.345   9.339  1.00  0.00    -0.252 N 
ATOM      3  N   UNL     1     -35.757   3.328   9.994  1.00  0.00    -0.175 NA
ATOM      4  C   UNL     1     -36.982   3.792  10.268  1.00  0.00    +0.079 A 
ATOM      5  C   UNL     1     -37.962   2.941  10.988  1.00  0.00    +0.070 C 
ATOM      6  C   UNL     1     -37.154   5.115   9.796  1.00  0.00    +0.117 A 
ATOM      7  C   UNL     1     -35.956   5.461   9.206  1.00  0.00    +0.139 A 
ATOM      8  C   UNL     1     -38.316   5.930   9.908  1.00  0.00    +0.105 C 
ATOM      9  N   UNL     1     -39.264   6.593  10.008  1.00  0.00    -0.192 NA
ENDROOT
BRANCH   7  10
ATOM     10  N   UNL     1     -35.545   6.597   8.595  1.00  0.00    -0.383 N 
ATOM     11  H   UNL     1     -34.583   6.697   8.273  1.00  0.00    +0.158 HD
ATOM     12  H   UNL     1     -36.186   7.225   8.114  1.00  0.00    +0.158 HD
ENDBRANCH   7  10
TORSDOF 1
ENDMDL
MODEL 7
REMARK VINA RESULT:    -4.807      9.571     11.616
REMARK INTER + INTRA:          -4.947
REMARK INTER:                  -4.947
REMARK INTRA:                   0.000
REMARK UNBOUND:                 0.000
REMARK SMILES Cc1nn(C)c(N)c1C#N
REMARK SMILES IDX 5 1 4 2 3 3 2 4 1 5 8 6 6 7 9 8 10 9 7 10
REMARK H PARENT 7 11 7 12
ROOT
ATOM      1  C   UNL     1     -38.884   5.924   9.936  1.00  0.00    +0.176 C 
ATOM      2  N   UNL     1     -37.624   5.467   9.400  1.00  0.00    -0.252 N 
ATOM      3  N   UNL     1     -36.791   6.361   8.827  1.00  0.00    -0.175 NA
ATOM      4  C   UNL     1     -35.753   5.621   8.418  1.00  0.00    +0.079 A 
ATOM      5  C   UNL     1     -34.609   6.259   7.718  1.00  0.00    +0.070 C 
ATOM      6  C   UNL     1     -35.925   4.256   8.746  1.00  0.00    +0.117 A 
ATOM      7  C   UNL     1     -37.141   4.177   9.393  1.00  0.00    +0.139 A 
ATOM      8  C   UNL     1     -35.031   3.181   8.476  1.00  0.00    +0.105 C 
ATOM      9  N   UNL     1     -34.296   2.309   8.258  1.00  0.00    -0.192 NA
ENDROOT
BRANCH   7  10
ATOM     10  N   UNL     1     -37.811   3.131   9.930  1.00  0.00    -0.383 N 
ATOM     11  H   UNL     1     -38.127   2.359   9.344  1.00  0.00    +0.158 HD
ATOM     12  H   UNL     1     -37.728   2.869  10.909  1.00  0.00    +0.158 HD
ENDBRANCH   7  10
TORSDOF 1
ENDMDL
MODEL 8
REMARK VINA RESULT:    -4.800      8.890     10.849
REMARK INTER + INTRA:          -4.940
REMARK INTER:                  -4.940
REMARK INTRA:                   0.000
REMARK UNBOUND:                 0.000
REMARK SMILES Cc1nn(C)c(N)c1C#N
REMARK SMILES IDX 5 1 4 2 3 3 2 4 1 5 8 6 6 7 9 8 10 9 7 10
REMARK H PARENT 7 11 7 12
ROOT
ATOM      1  C   UNL     1     -27.861   2.069  12.768  1.00  0.00    +0.176 C 
ATOM      2  N   UNL     1     -26.741   2.343  11.899  1.00  0.00    -0.252 N 
ATOM      3  N   UNL     1     -26.562   3.596  11.431  1.00  0.00    -0.175 NA
ATOM      4  C   UNL     1     -25.478   3.500  10.652  1.00  0.00    +0.079 A 
ATOM      5  C   UNL     1     -24.962   4.695   9.937  1.00  0.00    +0.070 C 
ATOM      6  C   UNL     1     -24.961   2.183  10.638  1.00  0.00    +0.117 A 
ATOM      7  C   UNL     1     -25.788   1.448  11.462  1.00  0.00    +0.139 A 
ATOM      8  C   UNL     1     -23.822   1.707   9.929  1.00  0.00    +0.105 C 
ATOM      9  N   UNL     1     -22.888   1.326   9.354  1.00  0.00    -0.192 NA
ENDROOT
BRANCH   7  10
ATOM     10  N   UNL     1     -25.773   0.144  11.824  1.00  0.00    -0.383 N 
ATOM     11  H   UNL     1     -25.633  -0.588  11.129  1.00  0.00    +0.158 HD
ATOM     12  H   UNL     1     -25.541  -0.162  12.766  1.00  0.00    +0.158 HD
ENDBRANCH   7  10
TORSDOF 1
ENDMDL
MODEL 9
REMARK VINA RESULT:    -4.617     10.667     11.337
REMARK INTER + INTRA:          -4.752
REMARK INTER:                  -4.752
REMARK INTRA:                   0.000
REMARK UNBOUND:                 0.000
REMARK SMILES Cc1nn(C)c(N)c1C#N
REMARK SMILES IDX 5 1 4 2 3 3 2 4 1 5 8 6 6 7 9 8 10 9 7 10
REMARK H PARENT 7 11 7 12
ROOT
ATOM      1  C   UNL     1     -35.227   1.789   8.905  1.00  0.00    +0.176 C 
ATOM      2  N   UNL     1     -35.353   3.055   9.588  1.00  0.00    -0.252 N 
ATOM      3  N   UNL     1     -34.399   3.426  10.466  1.00  0.00    -0.175 NA
ATOM      4  C   UNL     1     -34.826   4.607  10.931  1.00  0.00    +0.079 A 
ATOM      5  C   UNL     1     -34.033   5.343  11.947  1.00  0.00    +0.070 C 
ATOM      6  C   UNL     1     -36.050   4.990  10.333  1.00  0.00    +0.117 A 
ATOM      7  C   UNL     1     -36.371   3.975   9.455  1.00  0.00    +0.139 A 
ATOM      8  C   UNL     1     -36.798   6.177  10.574  1.00  0.00    +0.105 C 
ATOM      9  N   UNL     1     -37.401   7.150  10.770  1.00  0.00    -0.192 NA
ENDROOT
BRANCH   7  10
ATOM     10  N   UNL     1     -37.419   3.806   8.616  1.00  0.00    -0.383 N 
ATOM     11  H   UNL     1     -38.362   3.673   8.980  1.00  0.00    +0.158 HD
ATOM     12  H   UNL     1     -37.415   4.143   7.656  1.00  0.00    +0.158 HD
ENDBRANCH   7  10
TORSDOF 1
ENDMDL
