REMARK SMILES C[C@H](O)[C@H](O)[C@@H](O)[C@H](O)C(C=NNc1ccccc1)=NNc1ccccc1
REMARK SMILES IDX 6 1 4 2 2 3 1 4 3 5 5 7 7 9 8 11 9 12 10 14 20 15 11 16
REMARK SMILES IDX 12 17 13 18 14 20 15 21 19 22 16 23 18 24 17 25 21 26 22 28
REMARK SMILES IDX 23 29 27 30 24 31 26 32 25 33
REMARK H PARENT 3 6 5 8 7 10 9 13 13 19 21 27
ROOT
ATOM      1  C   UNL     1      -2.007  -1.517   0.753  1.00  0.00    +0.180 C 
ENDROOT
BRANCH   1   2
ATOM      2  C   UNL     1      -3.381  -1.433   0.045  1.00  0.00    +0.174 C 
BRANCH   2   3
ATOM      3  C   UNL     1      -3.430  -1.764  -1.466  1.00  0.00    +0.142 C 
ATOM      4  C   UNL     1      -3.139  -0.608  -2.419  1.00  0.00    +0.041 C 
BRANCH   3   5
ATOM      5  O   UNL     1      -4.775  -2.185  -1.767  1.00  0.00    -0.391 OA
ATOM      6  H   UNL     1      -5.364  -1.481  -1.434  1.00  0.00    +0.211 HD
ENDBRANCH   3   5
ENDBRANCH   2   3
BRANCH   2   7
ATOM      7  O   UNL     1      -4.042  -0.187   0.314  1.00  0.00    -0.388 OA
ATOM      8  H   UNL     1      -3.463   0.546   0.036  1.00  0.00    +0.211 HD
ENDBRANCH   2   7
ENDBRANCH   1   2
BRANCH   1   9
ATOM      9  O   UNL     1      -1.517  -2.876   0.755  1.00  0.00    -0.387 OA
ATOM     10  H   UNL     1      -2.226  -3.442   1.117  1.00  0.00    +0.211 HD
ENDBRANCH   1   9
BRANCH   1  11
ATOM     11  C   UNL     1      -0.903  -0.636   0.142  1.00  0.00    +0.198 C 
BRANCH  11  12
ATOM     12  O   UNL     1      -0.321  -1.322  -0.962  1.00  0.00    -0.384 OA
ATOM     13  H   UNL     1      -0.231  -2.258  -0.684  1.00  0.00    +0.211 HD
ENDBRANCH  11  12
BRANCH  11  14
ATOM     14  C   UNL     1       0.085  -0.257   1.244  1.00  0.00    +0.112 C 
ATOM     15  N   UNL     1      -0.102   0.628   2.184  1.00  0.00    -0.176 NA
BRANCH  14  16
ATOM     16  C   UNL     1       1.367  -1.024   1.286  1.00  0.00    +0.161 C 
ATOM     17  N   UNL     1       2.400  -0.568   0.656  1.00  0.00    -0.182 NA
BRANCH  17  18
ATOM     18  N   UNL     1       3.495  -1.373   0.773  1.00  0.00    -0.278 N 
ATOM     19  H   UNL     1       3.982  -1.304   1.669  1.00  0.00    +0.190 HD
BRANCH  18  20
ATOM     20  C   UNL     1       4.439  -1.308  -0.286  1.00  0.00    +0.056 A 
ATOM     21  C   UNL     1       5.727  -1.831  -0.091  1.00  0.00    +0.027 A 
ATOM     22  C   UNL     1       4.086  -0.876  -1.573  1.00  0.00    +0.027 A 
ATOM     23  C   UNL     1       6.659  -1.850  -1.134  1.00  0.00    +0.002 A 
ATOM     24  C   UNL     1       5.015  -0.896  -2.617  1.00  0.00    +0.002 A 
ATOM     25  C   UNL     1       6.303  -1.377  -2.395  1.00  0.00    +0.000 A 
ENDBRANCH  18  20
ENDBRANCH  17  18
ENDBRANCH  14  16
BRANCH  15  26
ATOM     26  N   UNL     1      -1.293   1.298   2.144  1.00  0.00    -0.278 N 
ATOM     27  H   UNL     1      -1.699   1.435   3.077  1.00  0.00    +0.190 HD
BRANCH  26  28
ATOM     28  C   UNL     1      -1.318   2.575   1.505  1.00  0.00    +0.056 A 
ATOM     29  C   UNL     1      -0.264   3.057   0.717  1.00  0.00    +0.027 A 
ATOM     30  C   UNL     1      -2.499   3.330   1.575  1.00  0.00    +0.027 A 
ATOM     31  C   UNL     1      -0.372   4.282   0.051  1.00  0.00    +0.002 A 
ATOM     32  C   UNL     1      -2.608   4.553   0.907  1.00  0.00    +0.002 A 
ATOM     33  C   UNL     1      -1.542   5.030   0.148  1.00  0.00    +0.000 A 
ENDBRANCH  26  28
ENDBRANCH  15  26
ENDBRANCH  11  14
ENDBRANCH   1  11
TORSDOF 13
