MODEL 1
REMARK VINA RESULT:    -5.425      0.000      0.000
REMARK INTER + INTRA:          -5.742
REMARK INTER:                  -5.742
REMARK INTRA:                   0.000
REMARK UNBOUND:                 0.000
REMARK SMILES Cc1nnc(S)nc1O
REMARK SMILES IDX 1 1 2 2 8 3 7 4 5 5 4 6 3 7 9 8 6 10
REMARK H PARENT 9 9 6 11
ROOT
ATOM      1  C   UNL     1     -33.453  -1.420   1.985  1.00  0.00    +0.075 C 
ATOM      2  C   UNL     1     -33.614  -1.519   0.507  1.00  0.00    +0.122 A 
ATOM      3  C   UNL     1     -34.452  -2.436  -0.093  1.00  0.00    +0.237 A 
ATOM      4  N   UNL     1     -34.629  -2.561  -1.414  1.00  0.00    -0.184 NA
ATOM      5  C   UNL     1     -33.904  -1.698  -2.145  1.00  0.00    +0.209 A 
ATOM      6  N   UNL     1     -33.063  -0.772  -1.630  1.00  0.00    -0.123 NA
ATOM      7  N   UNL     1     -32.913  -0.680  -0.279  1.00  0.00    -0.148 NA
ENDROOT
BRANCH   3   8
ATOM      8  O   UNL     1     -35.190  -3.313   0.636  1.00  0.00    -0.492 OA
ATOM      9  H   UNL     1     -35.977  -3.407   0.070  1.00  0.00    +0.295 HD
ENDBRANCH   3   8
BRANCH   5  10
ATOM     10  S   UNL     1     -34.056  -1.770  -3.904  1.00  0.00    -0.102 SA
ATOM     11  H   UNL     1     -35.309  -2.240  -3.871  1.00  0.00    +0.111 HD
ENDBRANCH   5  10
TORSDOF 2
ENDMDL
MODEL 2
REMARK VINA RESULT:    -5.022     15.513     15.842
REMARK INTER + INTRA:          -5.316
REMARK INTER:                  -5.316
REMARK INTRA:                   0.000
REMARK UNBOUND:                 0.000
REMARK SMILES Cc1nnc(S)nc1O
REMARK SMILES IDX 1 1 2 2 8 3 7 4 5 5 4 6 3 7 9 8 6 10
REMARK H PARENT 9 9 6 11
ROOT
ATOM      1  C   UNL     1     -28.583  12.247   5.478  1.00  0.00    +0.075 C 
ATOM      2  C   UNL     1     -27.691  11.111   5.849  1.00  0.00    +0.122 A 
ATOM      3  C   UNL     1     -26.537  10.812   5.155  1.00  0.00    +0.237 A 
ATOM      4  N   UNL     1     -25.707   9.804   5.451  1.00  0.00    -0.184 NA
ATOM      5  C   UNL     1     -26.091   9.075   6.512  1.00  0.00    +0.209 A 
ATOM      6  N   UNL     1     -27.207   9.307   7.240  1.00  0.00    -0.123 NA
ATOM      7  N   UNL     1     -28.024  10.344   6.903  1.00  0.00    -0.148 NA
ENDROOT
BRANCH   3   8
ATOM      8  O   UNL     1     -26.139  11.542   4.081  1.00  0.00    -0.492 OA
ATOM      9  H   UNL     1     -25.832  10.837   3.483  1.00  0.00    +0.295 HD
ENDBRANCH   3   8
BRANCH   5  10
ATOM     10  S   UNL     1     -25.071   7.716   6.997  1.00  0.00    -0.102 SA
ATOM     11  H   UNL     1     -24.066   8.496   7.412  1.00  0.00    +0.111 HD
ENDBRANCH   5  10
TORSDOF 2
ENDMDL
MODEL 3
REMARK VINA RESULT:    -4.941     15.494     15.889
REMARK INTER + INTRA:          -5.230
REMARK INTER:                  -5.230
REMARK INTRA:                   0.000
REMARK UNBOUND:                 0.000
REMARK SMILES Cc1nnc(S)nc1O
REMARK SMILES IDX 1 1 2 2 8 3 7 4 5 5 4 6 3 7 9 8 6 10
REMARK H PARENT 9 9 6 11
ROOT
ATOM      1  C   UNL     1     -28.425  12.421   5.434  1.00  0.00    +0.075 C 
ATOM      2  C   UNL     1     -27.475  11.336   5.808  1.00  0.00    +0.122 A 
ATOM      3  C   UNL     1     -27.807  10.322   6.684  1.00  0.00    +0.237 A 
ATOM      4  N   UNL     1     -26.988   9.328   7.048  1.00  0.00    -0.184 NA
ATOM      5  C   UNL     1     -25.772   9.388   6.482  1.00  0.00    +0.209 A 
ATOM      6  N   UNL     1     -25.373  10.349   5.616  1.00  0.00    -0.123 NA
ATOM      7  N   UNL     1     -26.240  11.343   5.273  1.00  0.00    -0.148 NA
ENDROOT
BRANCH   3   8
ATOM      8  O   UNL     1     -29.034  10.252   7.263  1.00  0.00    -0.492 OA
ATOM      9  H   UNL     1     -29.005   9.357   7.647  1.00  0.00    +0.295 HD
ENDBRANCH   3   8
BRANCH   5  10
ATOM     10  S   UNL     1     -24.604   8.126   6.890  1.00  0.00    -0.102 SA
ATOM     11  H   UNL     1     -24.459   7.719   5.623  1.00  0.00    +0.111 HD
ENDBRANCH   5  10
TORSDOF 2
ENDMDL
MODEL 4
REMARK VINA RESULT:    -4.930     14.864     15.301
REMARK INTER + INTRA:          -5.218
REMARK INTER:                  -5.218
REMARK INTRA:                   0.000
REMARK UNBOUND:                 0.000
REMARK SMILES Cc1nnc(S)nc1O
REMARK SMILES IDX 1 1 2 2 8 3 7 4 5 5 4 6 3 7 9 8 6 10
REMARK H PARENT 9 9 6 11
ROOT
ATOM      1  C   UNL     1     -25.370   6.280   7.642  1.00  0.00    +0.075 C 
ATOM      2  C   UNL     1     -25.829   7.587   7.092  1.00  0.00    +0.122 A 
ATOM      3  C   UNL     1     -24.988   8.453   6.426  1.00  0.00    +0.237 A 
ATOM      4  N   UNL     1     -25.356   9.635   5.916  1.00  0.00    -0.184 NA
ATOM      5  C   UNL     1     -26.651   9.931   6.105  1.00  0.00    +0.209 A 
ATOM      6  N   UNL     1     -27.536   9.135   6.747  1.00  0.00    -0.123 NA
ATOM      7  N   UNL     1     -27.119   7.939   7.251  1.00  0.00    -0.148 NA
ENDROOT
BRANCH   3   8
ATOM      8  O   UNL     1     -23.675   8.164   6.228  1.00  0.00    -0.492 OA
ATOM      9  H   UNL     1     -23.251   8.881   6.733  1.00  0.00    +0.295 HD
ENDBRANCH   3   8
BRANCH   5  10
ATOM     10  S   UNL     1     -27.251  11.469   5.474  1.00  0.00    -0.102 SA
ATOM     11  H   UNL     1     -28.486  11.296   5.962  1.00  0.00    +0.111 HD
ENDBRANCH   5  10
TORSDOF 2
ENDMDL
MODEL 5
REMARK VINA RESULT:    -4.871     15.306     15.683
REMARK INTER + INTRA:          -5.156
REMARK INTER:                  -5.156
REMARK INTRA:                   0.000
REMARK UNBOUND:                 0.000
REMARK SMILES Cc1nnc(S)nc1O
REMARK SMILES IDX 1 1 2 2 8 3 7 4 5 5 4 6 3 7 9 8 6 10
REMARK H PARENT 9 9 6 11
ROOT
ATOM      1  C   UNL     1     -24.618   8.223   6.617  1.00  0.00    +0.075 C 
ATOM      2  C   UNL     1     -25.616   9.294   6.334  1.00  0.00    +0.122 A 
ATOM      3  C   UNL     1     -26.916   9.242   6.791  1.00  0.00    +0.237 A 
ATOM      4  N   UNL     1     -27.845  10.178   6.562  1.00  0.00    -0.184 NA
ATOM      5  C   UNL     1     -27.407  11.212   5.826  1.00  0.00    +0.209 A 
ATOM      6  N   UNL     1     -26.149  11.334   5.342  1.00  0.00    -0.123 NA
ATOM      7  N   UNL     1     -25.235  10.356   5.600  1.00  0.00    -0.148 NA
ENDROOT
BRANCH   3   8
ATOM      8  O   UNL     1     -27.371   8.201   7.536  1.00  0.00    -0.492 OA
ATOM      9  H   UNL     1     -26.554   7.681   7.644  1.00  0.00    +0.295 HD
ENDBRANCH   3   8
BRANCH   5  10
ATOM     10  S   UNL     1     -28.548  12.512   5.458  1.00  0.00    -0.102 SA
ATOM     11  H   UNL     1     -28.368  12.422   4.134  1.00  0.00    +0.111 HD
ENDBRANCH   5  10
TORSDOF 2
ENDMDL
MODEL 6
REMARK VINA RESULT:    -4.808     14.338     14.631
REMARK INTER + INTRA:          -5.089
REMARK INTER:                  -5.089
REMARK INTRA:                   0.000
REMARK UNBOUND:                 0.000
REMARK SMILES Cc1nnc(S)nc1O
REMARK SMILES IDX 1 1 2 2 8 3 7 4 5 5 4 6 3 7 9 8 6 10
REMARK H PARENT 9 9 6 11
ROOT
ATOM      1  C   UNL     1     -28.222  10.037   6.474  1.00  0.00    +0.075 C 
ATOM      2  C   UNL     1     -27.617   8.772   6.977  1.00  0.00    +0.122 A 
ATOM      3  C   UNL     1     -26.472   8.225   6.435  1.00  0.00    +0.237 A 
ATOM      4  N   UNL     1     -25.893   7.093   6.853  1.00  0.00    -0.184 NA
ATOM      5  C   UNL     1     -26.529   6.502   7.878  1.00  0.00    +0.209 A 
ATOM      6  N   UNL     1     -27.653   6.976   8.461  1.00  0.00    -0.123 NA
ATOM      7  N   UNL     1     -28.210   8.133   8.003  1.00  0.00    -0.148 NA
ENDROOT
BRANCH   3   8
ATOM      8  O   UNL     1     -25.820   8.814   5.399  1.00  0.00    -0.492 OA
ATOM      9  H   UNL     1     -25.046   8.230   5.312  1.00  0.00    +0.295 HD
ENDBRANCH   3   8
BRANCH   5  10
ATOM     10  S   UNL     1     -25.855   4.997   8.515  1.00  0.00    -0.102 SA
ATOM     11  H   UNL     1     -26.325   4.250   7.509  1.00  0.00    +0.111 HD
ENDBRANCH   5  10
TORSDOF 2
ENDMDL
MODEL 7
REMARK VINA RESULT:    -4.768     13.840     14.816
REMARK INTER + INTRA:          -5.046
REMARK INTER:                  -5.046
REMARK INTRA:                   0.000
REMARK UNBOUND:                 0.000
REMARK SMILES Cc1nnc(S)nc1O
REMARK SMILES IDX 1 1 2 2 8 3 7 4 5 5 4 6 3 7 9 8 6 10
REMARK H PARENT 9 9 6 11
ROOT
ATOM      1  C   UNL     1     -27.971   3.259   9.517  1.00  0.00    +0.075 C 
ATOM      2  C   UNL     1     -26.569   2.810   9.748  1.00  0.00    +0.122 A 
ATOM      3  C   UNL     1     -25.747   3.384  10.695  1.00  0.00    +0.237 A 
ATOM      4  N   UNL     1     -24.484   3.013  10.937  1.00  0.00    -0.184 NA
ATOM      5  C   UNL     1     -24.054   2.005  10.162  1.00  0.00    +0.209 A 
ATOM      6  N   UNL     1     -24.799   1.392   9.214  1.00  0.00    -0.123 NA
ATOM      7  N   UNL     1     -26.081   1.801   9.001  1.00  0.00    -0.148 NA
ENDROOT
BRANCH   3   8
ATOM      8  O   UNL     1     -26.172   4.405  11.484  1.00  0.00    -0.492 OA
ATOM      9  H   UNL     1     -26.947   4.716  10.982  1.00  0.00    +0.295 HD
ENDBRANCH   3   8
BRANCH   5  10
ATOM     10  S   UNL     1     -22.398   1.430  10.392  1.00  0.00    -0.102 SA
ATOM     11  H   UNL     1     -21.869   2.660  10.372  1.00  0.00    +0.111 HD
ENDBRANCH   5  10
TORSDOF 2
ENDMDL
MODEL 8
REMARK VINA RESULT:    -4.693     13.924     14.697
REMARK INTER + INTRA:          -4.968
REMARK INTER:                  -4.968
REMARK INTRA:                   0.000
REMARK UNBOUND:                 0.000
REMARK SMILES Cc1nnc(S)nc1O
REMARK SMILES IDX 1 1 2 2 8 3 7 4 5 5 4 6 3 7 9 8 6 10
REMARK H PARENT 9 9 6 11
ROOT
ATOM      1  C   UNL     1     -23.460   0.103  10.458  1.00  0.00    +0.075 C 
ATOM      2  C   UNL     1     -24.345   1.226  10.038  1.00  0.00    +0.122 A 
ATOM      3  C   UNL     1     -24.161   2.524  10.470  1.00  0.00    +0.237 A 
ATOM      4  N   UNL     1     -24.929   3.562  10.119  1.00  0.00    -0.184 NA
ATOM      5  C   UNL     1     -25.933   3.242   9.287  1.00  0.00    +0.209 A 
ATOM      6  N   UNL     1     -26.178   1.995   8.822  1.00  0.00    -0.123 NA
ATOM      7  N   UNL     1     -25.369   0.967   9.204  1.00  0.00    -0.148 NA
ENDROOT
BRANCH   3   8
ATOM      8  O   UNL     1     -23.149   2.859  11.312  1.00  0.00    -0.492 OA
ATOM      9  H   UNL     1     -23.639   2.995  12.143  1.00  0.00    +0.295 HD
ENDBRANCH   3   8
BRANCH   5  10
ATOM     10  S   UNL     1     -27.015   4.535   8.756  1.00  0.00    -0.102 SA
ATOM     11  H   UNL     1     -26.025   5.417   8.574  1.00  0.00    +0.111 HD
ENDBRANCH   5  10
TORSDOF 2
ENDMDL
MODEL 9
REMARK VINA RESULT:    -4.670     13.671     14.591
REMARK INTER + INTRA:          -4.942
REMARK INTER:                  -4.942
REMARK INTRA:                   0.000
REMARK UNBOUND:                 0.000
REMARK SMILES Cc1nnc(S)nc1O
REMARK SMILES IDX 1 1 2 2 8 3 7 4 5 5 4 6 3 7 9 8 6 10
REMARK H PARENT 9 9 6 11
ROOT
ATOM      1  C   UNL     1     -23.925   0.933  11.391  1.00  0.00    +0.075 C 
ATOM      2  C   UNL     1     -24.595   2.055  10.674  1.00  0.00    +0.122 A 
ATOM      3  C   UNL     1     -25.330   1.872   9.521  1.00  0.00    +0.237 A 
ATOM      4  N   UNL     1     -25.948   2.848   8.845  1.00  0.00    -0.184 NA
ATOM      5  C   UNL     1     -25.796   4.067   9.387  1.00  0.00    +0.209 A 
ATOM      6  N   UNL     1     -25.091   4.326  10.512  1.00  0.00    -0.123 NA
ATOM      7  N   UNL     1     -24.478   3.301  11.170  1.00  0.00    -0.148 NA
ENDROOT
BRANCH   3   8
ATOM      8  O   UNL     1     -25.490   0.643   8.964  1.00  0.00    -0.492 OA
ATOM      9  H   UNL     1     -25.447   0.075   9.755  1.00  0.00    +0.295 HD
ENDBRANCH   3   8
BRANCH   5  10
ATOM     10  S   UNL     1     -26.568   5.436   8.578  1.00  0.00    -0.102 SA
ATOM     11  H   UNL     1     -26.925   6.031   9.723  1.00  0.00    +0.111 HD
ENDBRANCH   5  10
TORSDOF 2
ENDMDL
