REMARK SMILES O=C(C=Cc1cccc(Cl)c1)c1ccccc1
REMARK SMILES IDX 4 1 3 2 5 3 9 4 8 5 11 6 7 7 6 8 10 9 2 10 1 11 12 12 13 13
REMARK SMILES IDX 17 14 14 15 16 16 15 17
REMARK H PARENT
ROOT
ATOM      1  C   UNL     1      -1.202   0.910   0.004  1.00  0.00    +0.012 C 
ATOM      2  C   UNL     1      -0.012   0.287   0.063  1.00  0.00    +0.053 C 
ENDROOT
BRANCH   1   3
ATOM      3  C   UNL     1      -2.521   0.318   0.299  1.00  0.00    -0.024 A 
ATOM      4  C   UNL     1      -4.929   0.636   0.446  1.00  0.00    +0.041 A 
ATOM      5  C   UNL     1      -5.100  -0.689   0.835  1.00  0.00    +0.020 A 
ATOM      6  C   UNL     1      -3.654   1.139   0.180  1.00  0.00    +0.028 A 
ATOM      7  C   UNL     1      -3.986  -1.516   0.957  1.00  0.00    +0.002 A 
ATOM      8  C   UNL     1      -2.707  -1.016   0.692  1.00  0.00    +0.008 A 
ATOM      9 Cl   UNL     1      -6.302   1.662   0.293  1.00  0.00    -0.084 Cl
ENDBRANCH   1   3
BRANCH   2  10
ATOM     10  C   UNL     1       1.226   1.049  -0.272  1.00  0.00    +0.185 C 
ATOM     11  O   UNL     1       1.162   2.233  -0.598  1.00  0.00    -0.289 OA
BRANCH  10  12
ATOM     12  C   UNL     1       2.560   0.373  -0.213  1.00  0.00    +0.022 A 
ATOM     13  C   UNL     1       3.687   1.145  -0.540  1.00  0.00    +0.012 A 
ATOM     14  C   UNL     1       2.750  -0.969   0.144  1.00  0.00    +0.012 A 
ATOM     15  C   UNL     1       4.970   0.594  -0.511  1.00  0.00    +0.001 A 
ATOM     16  C   UNL     1       4.037  -1.520   0.173  1.00  0.00    +0.001 A 
ATOM     17  C   UNL     1       5.144  -0.740  -0.154  1.00  0.00    +0.000 A 
ENDBRANCH  10  12
ENDBRANCH   2  10
TORSDOF 3
