MODEL 1
REMARK VINA RESULT:    -7.156      0.000      0.000
REMARK INTER + INTRA:          -9.494
REMARK INTER:                  -9.247
REMARK INTRA:                  -0.246
REMARK UNBOUND:                -0.246
REMARK SMILES CC[C@H](C(=O)OC)C(=O)c1ccccc1
REMARK SMILES IDX 4 1 5 2 3 3 2 4 1 5 8 6 9 7 10 8 11 9 15 10 12 11 14 12
REMARK SMILES IDX 13 13 6 14 7 15
REMARK H PARENT
ROOT
ATOM      1  C   UNL     1     -26.250   9.800   5.426  1.00  0.00    +0.316 C 
ATOM      2  O   UNL     1     -26.556   9.205   4.403  1.00  0.00    -0.251 OA
ENDROOT
BRANCH   1   3
ATOM      3  C   UNL     1     -27.168  10.700   6.224  1.00  0.00    +0.170 C 
BRANCH   3   4
ATOM      4  C   UNL     1     -28.078  11.452   5.237  1.00  0.00    +0.020 C 
ATOM      5  C   UNL     1     -27.826  12.954   5.239  1.00  0.00    +0.005 C 
ENDBRANCH   3   4
BRANCH   3   6
ATOM      6  C   UNL     1     -27.959   9.911   7.262  1.00  0.00    +0.177 C 
ATOM      7  O   UNL     1     -27.426   9.089   8.008  1.00  0.00    -0.293 OA
BRANCH   6   8
ATOM      8  C   UNL     1     -29.440  10.105   7.362  1.00  0.00    +0.018 A 
ATOM      9  C   UNL     1     -30.270   9.010   7.079  1.00  0.00    +0.012 A 
ATOM     10  C   UNL     1     -30.022  11.331   7.708  1.00  0.00    +0.012 A 
ATOM     11  C   UNL     1     -31.658   9.135   7.152  1.00  0.00    +0.001 A 
ATOM     12  C   UNL     1     -31.413  11.452   7.781  1.00  0.00    +0.001 A 
ATOM     13  C   UNL     1     -32.229  10.356   7.505  1.00  0.00    +0.000 A 
ENDBRANCH   6   8
ENDBRANCH   3   6
ENDBRANCH   1   3
BRANCH   1  14
ATOM     14  O   UNL     1     -25.021   9.748   6.019  1.00  0.00    -0.468 OA
ATOM     15  C   UNL     1     -24.597   8.427   6.361  1.00  0.00    +0.282 C 
ENDBRANCH   1  14
TORSDOF 5
ENDMDL
MODEL 2
REMARK VINA RESULT:    -7.095      1.412      3.044
REMARK INTER + INTRA:          -9.415
REMARK INTER:                  -9.221
REMARK INTRA:                  -0.194
REMARK UNBOUND:                -0.246
REMARK SMILES CC[C@H](C(=O)OC)C(=O)c1ccccc1
REMARK SMILES IDX 4 1 5 2 3 3 2 4 1 5 8 6 9 7 10 8 11 9 15 10 12 11 14 12
REMARK SMILES IDX 13 13 6 14 7 15
REMARK H PARENT
ROOT
ATOM      1  C   UNL     1     -26.488   9.144   5.486  1.00  0.00    +0.316 C 
ATOM      2  O   UNL     1     -26.844   9.316   4.330  1.00  0.00    -0.251 OA
ENDROOT
BRANCH   1   3
ATOM      3  C   UNL     1     -26.836   7.946   6.341  1.00  0.00    +0.170 C 
BRANCH   3   4
ATOM      4  C   UNL     1     -25.531   7.389   6.938  1.00  0.00    +0.020 C 
ATOM      5  C   UNL     1     -25.559   5.874   7.090  1.00  0.00    +0.005 C 
ENDBRANCH   3   4
BRANCH   3   6
ATOM      6  C   UNL     1     -27.861   8.304   7.412  1.00  0.00    +0.177 C 
ATOM      7  O   UNL     1     -27.794   7.862   8.560  1.00  0.00    -0.293 OA
BRANCH   6   8
ATOM      8  C   UNL     1     -29.013   9.194   7.060  1.00  0.00    +0.018 A 
ATOM      9  C   UNL     1     -28.858  10.576   7.242  1.00  0.00    +0.012 A 
ATOM     10  C   UNL     1     -30.232   8.700   6.579  1.00  0.00    +0.012 A 
ATOM     11  C   UNL     1     -29.901  11.452   6.935  1.00  0.00    +0.001 A 
ATOM     12  C   UNL     1     -31.274   9.581   6.273  1.00  0.00    +0.001 A 
ATOM     13  C   UNL     1     -31.107  10.954   6.448  1.00  0.00    +0.000 A 
ENDBRANCH   6   8
ENDBRANCH   3   6
ENDBRANCH   1   3
BRANCH   1  14
ATOM     14  O   UNL     1     -25.714  10.013   6.199  1.00  0.00    -0.468 OA
ATOM     15  C   UNL     1     -25.679  11.337   5.660  1.00  0.00    +0.282 C 
ENDBRANCH   1  14
TORSDOF 5
ENDMDL
MODEL 3
REMARK VINA RESULT:    -6.976      2.429      4.953
REMARK INTER + INTRA:          -9.261
REMARK INTER:                  -8.812
REMARK INTRA:                  -0.449
REMARK UNBOUND:                -0.246
REMARK SMILES CC[C@H](C(=O)OC)C(=O)c1ccccc1
REMARK SMILES IDX 4 1 5 2 3 3 2 4 1 5 8 6 9 7 10 8 11 9 15 10 12 11 14 12
REMARK SMILES IDX 13 13 6 14 7 15
REMARK H PARENT
ROOT
ATOM      1  C   UNL     1     -30.317   7.612   7.694  1.00  0.00    +0.316 C 
ATOM      2  O   UNL     1     -29.190   7.304   8.054  1.00  0.00    -0.251 OA
ENDROOT
BRANCH   1   3
ATOM      3  C   UNL     1     -30.646   8.589   6.586  1.00  0.00    +0.170 C 
BRANCH   3   4
ATOM      4  C   UNL     1     -32.094   8.329   6.134  1.00  0.00    +0.020 C 
ATOM      5  C   UNL     1     -32.178   7.314   5.001  1.00  0.00    +0.005 C 
ENDBRANCH   3   4
BRANCH   3   6
ATOM      6  C   UNL     1     -30.424  10.031   7.030  1.00  0.00    +0.177 C 
ATOM      7  O   UNL     1     -31.132  10.573   7.879  1.00  0.00    -0.293 OA
BRANCH   6   8
ATOM      8  C   UNL     1     -29.334  10.837   6.395  1.00  0.00    +0.018 A 
ATOM      9  C   UNL     1     -28.073  10.239   6.245  1.00  0.00    +0.012 A 
ATOM     10  C   UNL     1     -29.519  12.158   5.966  1.00  0.00    +0.012 A 
ATOM     11  C   UNL     1     -27.019  10.946   5.664  1.00  0.00    +0.001 A 
ATOM     12  C   UNL     1     -28.460  12.861   5.385  1.00  0.00    +0.001 A 
ATOM     13  C   UNL     1     -27.214  12.256   5.232  1.00  0.00    +0.000 A 
ENDBRANCH   6   8
ENDBRANCH   3   6
ENDBRANCH   1   3
BRANCH   1  14
ATOM     14  O   UNL     1     -31.469   7.123   8.238  1.00  0.00    -0.468 OA
ATOM     15  C   UNL     1     -31.317   5.851   8.873  1.00  0.00    +0.282 C 
ENDBRANCH   1  14
TORSDOF 5
ENDMDL
MODEL 4
REMARK VINA RESULT:    -6.916      1.912      2.757
REMARK INTER + INTRA:          -9.184
REMARK INTER:                  -8.652
REMARK INTRA:                  -0.532
REMARK UNBOUND:                -0.246
REMARK SMILES CC[C@H](C(=O)OC)C(=O)c1ccccc1
REMARK SMILES IDX 4 1 5 2 3 3 2 4 1 5 8 6 9 7 10 8 11 9 15 10 12 11 14 12
REMARK SMILES IDX 13 13 6 14 7 15
REMARK H PARENT
ROOT
ATOM      1  C   UNL     1     -25.632   7.546   7.278  1.00  0.00    +0.316 C 
ATOM      2  O   UNL     1     -24.634   7.754   7.952  1.00  0.00    -0.251 OA
ENDROOT
BRANCH   1   3
ATOM      3  C   UNL     1     -26.654   8.588   6.880  1.00  0.00    +0.170 C 
BRANCH   3   4
ATOM      4  C   UNL     1     -26.873   8.487   5.360  1.00  0.00    +0.020 C 
ATOM      5  C   UNL     1     -26.741   9.834   4.661  1.00  0.00    +0.005 C 
ENDBRANCH   3   4
BRANCH   3   6
ATOM      6  C   UNL     1     -27.950   8.427   7.668  1.00  0.00    +0.177 C 
ATOM      7  O   UNL     1     -28.048   7.652   8.620  1.00  0.00    -0.293 OA
BRANCH   6   8
ATOM      8  C   UNL     1     -29.162   9.205   7.259  1.00  0.00    +0.018 A 
ATOM      9  C   UNL     1     -29.088  10.606   7.288  1.00  0.00    +0.012 A 
ATOM     10  C   UNL     1     -30.360   8.593   6.870  1.00  0.00    +0.012 A 
ATOM     11  C   UNL     1     -30.189  11.381   6.922  1.00  0.00    +0.001 A 
ATOM     12  C   UNL     1     -31.461   9.374   6.503  1.00  0.00    +0.001 A 
ATOM     13  C   UNL     1     -31.374  10.765   6.528  1.00  0.00    +0.000 A 
ENDBRANCH   6   8
ENDBRANCH   3   6
ENDBRANCH   1   3
BRANCH   1  14
ATOM     14  O   UNL     1     -25.990   6.329   6.772  1.00  0.00    -0.468 OA
ATOM     15  C   UNL     1     -25.851   5.251   7.701  1.00  0.00    +0.282 C 
ENDBRANCH   1  14
TORSDOF 5
ENDMDL
MODEL 5
REMARK VINA RESULT:    -6.780      3.193      5.743
REMARK INTER + INTRA:          -9.008
REMARK INTER:                  -8.405
REMARK INTRA:                  -0.604
REMARK UNBOUND:                -0.246
REMARK SMILES CC[C@H](C(=O)OC)C(=O)c1ccccc1
REMARK SMILES IDX 4 1 5 2 3 3 2 4 1 5 8 6 9 7 10 8 11 9 15 10 12 11 14 12
REMARK SMILES IDX 13 13 6 14 7 15
REMARK H PARENT
ROOT
ATOM      1  C   UNL     1     -31.630   6.501   8.209  1.00  0.00    +0.316 C 
ATOM      2  O   UNL     1     -30.680   6.446   8.975  1.00  0.00    -0.251 OA
ENDROOT
BRANCH   1   3
ATOM      3  C   UNL     1     -31.722   7.393   6.990  1.00  0.00    +0.170 C 
BRANCH   3   4
ATOM      4  C   UNL     1     -32.963   6.973   6.182  1.00  0.00    +0.020 C 
ATOM      5  C   UNL     1     -32.838   7.314   4.703  1.00  0.00    +0.005 C 
ENDBRANCH   3   4
BRANCH   3   6
ATOM      6  C   UNL     1     -31.751   8.867   7.379  1.00  0.00    +0.177 C 
ATOM      7  O   UNL     1     -32.692   9.365   7.998  1.00  0.00    -0.293 OA
BRANCH   6   8
ATOM      8  C   UNL     1     -30.619   9.759   6.970  1.00  0.00    +0.018 A 
ATOM      9  C   UNL     1     -30.922  11.073   6.584  1.00  0.00    +0.012 A 
ATOM     10  C   UNL     1     -29.287   9.328   6.941  1.00  0.00    +0.012 A 
ATOM     11  C   UNL     1     -29.907  11.947   6.188  1.00  0.00    +0.001 A 
ATOM     12  C   UNL     1     -28.274  10.207   6.545  1.00  0.00    +0.001 A 
ATOM     13  C   UNL     1     -28.584  11.513   6.171  1.00  0.00    +0.000 A 
ENDBRANCH   6   8
ENDBRANCH   3   6
ENDBRANCH   1   3
BRANCH   1  14
ATOM     14  O   UNL     1     -32.771   5.763   8.330  1.00  0.00    -0.468 OA
ATOM     15  C   UNL     1     -32.844   5.000   9.537  1.00  0.00    +0.282 C 
ENDBRANCH   1  14
TORSDOF 5
ENDMDL
MODEL 6
REMARK VINA RESULT:    -6.728      6.446      9.427
REMARK INTER + INTRA:          -8.941
REMARK INTER:                  -8.442
REMARK INTRA:                  -0.498
REMARK UNBOUND:                -0.246
REMARK SMILES CC[C@H](C(=O)OC)C(=O)c1ccccc1
REMARK SMILES IDX 4 1 5 2 3 3 2 4 1 5 8 6 9 7 10 8 11 9 15 10 12 11 14 12
REMARK SMILES IDX 13 13 6 14 7 15
REMARK H PARENT
ROOT
ATOM      1  C   UNL     1     -36.536   5.006   8.971  1.00  0.00    +0.316 C 
ATOM      2  O   UNL     1     -37.041   3.948   8.628  1.00  0.00    -0.251 OA
ENDROOT
BRANCH   1   3
ATOM      3  C   UNL     1     -35.125   5.177   9.491  1.00  0.00    +0.170 C 
BRANCH   3   4
ATOM      4  C   UNL     1     -35.032   4.481  10.860  1.00  0.00    +0.020 C 
ATOM      5  C   UNL     1     -34.085   5.197  11.814  1.00  0.00    +0.005 C 
ENDBRANCH   3   4
BRANCH   3   6
ATOM      6  C   UNL     1     -34.097   4.648   8.496  1.00  0.00    +0.177 C 
ATOM      7  O   UNL     1     -33.652   3.501   8.559  1.00  0.00    -0.293 OA
BRANCH   6   8
ATOM      8  C   UNL     1     -33.577   5.553   7.423  1.00  0.00    +0.018 A 
ATOM      9  C   UNL     1     -34.143   5.452   6.143  1.00  0.00    +0.012 A 
ATOM     10  C   UNL     1     -32.545   6.474   7.643  1.00  0.00    +0.012 A 
ATOM     11  C   UNL     1     -33.693   6.268   5.103  1.00  0.00    +0.001 A 
ATOM     12  C   UNL     1     -32.098   7.289   6.598  1.00  0.00    +0.001 A 
ATOM     13  C   UNL     1     -32.673   7.187   5.332  1.00  0.00    +0.000 A 
ENDBRANCH   6   8
ENDBRANCH   3   6
ENDBRANCH   1   3
BRANCH   1  14
ATOM     14  O   UNL     1     -37.168   6.216   8.941  1.00  0.00    -0.468 OA
ATOM     15  C   UNL     1     -38.493   6.192   9.477  1.00  0.00    +0.282 C 
ENDBRANCH   1  14
TORSDOF 5
ENDMDL
MODEL 7
REMARK VINA RESULT:    -6.360      7.746     10.472
REMARK INTER + INTRA:          -8.465
REMARK INTER:                  -7.814
REMARK INTRA:                  -0.651
REMARK UNBOUND:                -0.246
REMARK SMILES CC[C@H](C(=O)OC)C(=O)c1ccccc1
REMARK SMILES IDX 4 1 5 2 3 3 2 4 1 5 8 6 9 7 10 8 11 9 15 10 12 11 14 12
REMARK SMILES IDX 13 13 6 14 7 15
REMARK H PARENT
ROOT
ATOM      1  C   UNL     1     -26.795   3.929   9.198  1.00  0.00    +0.316 C 
ATOM      2  O   UNL     1     -27.915   4.386   9.023  1.00  0.00    -0.251 OA
ENDROOT
BRANCH   1   3
ATOM      3  C   UNL     1     -26.414   2.930  10.268  1.00  0.00    +0.170 C 
BRANCH   3   4
ATOM      4  C   UNL     1     -27.645   2.690  11.160  1.00  0.00    +0.020 C 
ATOM      5  C   UNL     1     -27.363   1.709  12.291  1.00  0.00    +0.005 C 
ENDBRANCH   3   4
BRANCH   3   6
ATOM      6  C   UNL     1     -25.874   1.640   9.659  1.00  0.00    +0.177 C 
ATOM      7  O   UNL     1     -26.525   0.969   8.859  1.00  0.00    -0.293 OA
BRANCH   6   8
ATOM      8  C   UNL     1     -24.521   1.143  10.067  1.00  0.00    +0.018 A 
ATOM      9  C   UNL     1     -23.509   2.089  10.286  1.00  0.00    +0.012 A 
ATOM     10  C   UNL     1     -24.229  -0.219  10.219  1.00  0.00    +0.012 A 
ATOM     11  C   UNL     1     -22.228   1.682  10.663  1.00  0.00    +0.001 A 
ATOM     12  C   UNL     1     -22.944  -0.622  10.597  1.00  0.00    +0.001 A 
ATOM     13  C   UNL     1     -21.947   0.327  10.820  1.00  0.00    +0.000 A 
ENDBRANCH   6   8
ENDBRANCH   3   6
ENDBRANCH   1   3
BRANCH   1  14
ATOM     14  O   UNL     1     -25.698   4.249   8.451  1.00  0.00    -0.468 OA
ATOM     15  C   UNL     1     -25.396   5.646   8.433  1.00  0.00    +0.282 C 
ENDBRANCH   1  14
TORSDOF 5
ENDMDL
MODEL 8
REMARK VINA RESULT:    -6.238      9.017     10.213
REMARK INTER + INTRA:          -8.308
REMARK INTER:                  -7.853
REMARK INTRA:                  -0.455
REMARK UNBOUND:                -0.246
REMARK SMILES CC[C@H](C(=O)OC)C(=O)c1ccccc1
REMARK SMILES IDX 4 1 5 2 3 3 2 4 1 5 8 6 9 7 10 8 11 9 15 10 12 11 14 12
REMARK SMILES IDX 13 13 6 14 7 15
REMARK H PARENT
ROOT
ATOM      1  C   UNL     1     -25.696   0.868  10.013  1.00  0.00    +0.316 C 
ATOM      2  O   UNL     1     -25.734   1.021   8.801  1.00  0.00    -0.251 OA
ENDROOT
BRANCH   1   3
ATOM      3  C   UNL     1     -25.894   1.961  11.041  1.00  0.00    +0.170 C 
BRANCH   3   4
ATOM      4  C   UNL     1     -24.836   3.050  10.791  1.00  0.00    +0.020 C 
ATOM      5  C   UNL     1     -23.420   2.565  11.075  1.00  0.00    +0.005 C 
ENDBRANCH   3   4
BRANCH   3   6
ATOM      6  C   UNL     1     -27.316   2.510  11.004  1.00  0.00    +0.177 C 
ATOM      7  O   UNL     1     -27.633   3.466  10.295  1.00  0.00    -0.293 OA
BRANCH   6   8
ATOM      8  C   UNL     1     -28.365   1.897  11.880  1.00  0.00    +0.018 A 
ATOM      9  C   UNL     1     -29.539   1.427  11.274  1.00  0.00    +0.012 A 
ATOM     10  C   UNL     1     -28.225   1.795  13.271  1.00  0.00    +0.012 A 
ATOM     11  C   UNL     1     -30.552   0.851  12.043  1.00  0.00    +0.001 A 
ATOM     12  C   UNL     1     -29.242   1.217  14.037  1.00  0.00    +0.001 A 
ATOM     13  C   UNL     1     -30.402   0.745  13.424  1.00  0.00    +0.000 A 
ENDBRANCH   6   8
ENDBRANCH   3   6
ENDBRANCH   1   3
BRANCH   1  14
ATOM     14  O   UNL     1     -25.467  -0.322  10.641  1.00  0.00    -0.468 OA
ATOM     15  C   UNL     1     -25.471  -1.451   9.764  1.00  0.00    +0.282 C 
ENDBRANCH   1  14
TORSDOF 5
ENDMDL
MODEL 9
REMARK VINA RESULT:    -6.107      6.360      9.002
REMARK INTER + INTRA:          -8.138
REMARK INTER:                  -7.651
REMARK INTRA:                  -0.487
REMARK UNBOUND:                -0.246
REMARK SMILES CC[C@H](C(=O)OC)C(=O)c1ccccc1
REMARK SMILES IDX 4 1 5 2 3 3 2 4 1 5 8 6 9 7 10 8 11 9 15 10 12 11 14 12
REMARK SMILES IDX 13 13 6 14 7 15
REMARK H PARENT
ROOT
ATOM      1  C   UNL     1     -35.284   3.436   7.721  1.00  0.00    +0.316 C 
ATOM      2  O   UNL     1     -34.764   3.005   6.702  1.00  0.00    -0.251 OA
ENDROOT
BRANCH   1   3
ATOM      3  C   UNL     1     -34.719   4.532   8.597  1.00  0.00    +0.170 C 
BRANCH   3   4
ATOM      4  C   UNL     1     -33.225   4.240   8.826  1.00  0.00    +0.020 C 
ATOM      5  C   UNL     1     -32.889   4.037  10.298  1.00  0.00    +0.005 C 
ENDBRANCH   3   4
BRANCH   3   6
ATOM      6  C   UNL     1     -34.957   5.911   7.989  1.00  0.00    +0.177 C 
ATOM      7  O   UNL     1     -35.940   6.594   8.275  1.00  0.00    -0.293 OA
BRANCH   6   8
ATOM      8  C   UNL     1     -33.988   6.448   6.982  1.00  0.00    +0.018 A 
ATOM      9  C   UNL     1     -32.981   7.315   7.432  1.00  0.00    +0.012 A 
ATOM     10  C   UNL     1     -34.060   6.135   5.618  1.00  0.00    +0.012 A 
ATOM     11  C   UNL     1     -32.054   7.850   6.536  1.00  0.00    +0.001 A 
ATOM     12  C   UNL     1     -33.129   6.673   4.725  1.00  0.00    +0.001 A 
ATOM     13  C   UNL     1     -32.127   7.527   5.183  1.00  0.00    +0.000 A 
ENDBRANCH   6   8
ENDBRANCH   3   6
ENDBRANCH   1   3
BRANCH   1  14
ATOM     14  O   UNL     1     -36.469   2.995   8.237  1.00  0.00    -0.468 OA
ATOM     15  C   UNL     1     -36.334   2.265   9.458  1.00  0.00    +0.282 C 
ENDBRANCH   1  14
TORSDOF 5
ENDMDL
