MODEL 1
REMARK VINA RESULT:    -6.875      0.000      0.000
REMARK INTER + INTRA:          -9.737
REMARK INTER:                  -9.487
REMARK INTRA:                  -0.250
REMARK UNBOUND:                -0.250
REMARK SMILES CC(C)NC[C@@H](O)COc1ccccc1
REMARK SMILES IDX 5 1 4 2 2 4 1 5 3 6 6 7 8 8 9 9 10 10 11 11 15 12 12 13
REMARK SMILES IDX 14 14 13 15 7 16
REMARK H PARENT 4 3 7 17
ROOT
ATOM      1  C   UNL     1     -25.484   6.780   7.116  1.00  0.00    +0.116 C 
ENDROOT
BRANCH   1   2
ATOM      2  N   UNL     1     -25.198   6.248   8.461  1.00  0.00    -0.312 NA
ATOM      3  H   UNL     1     -25.692   6.828   9.140  1.00  0.00    +0.123 HD
BRANCH   2   4
ATOM      4  C   UNL     1     -25.552   4.837   8.656  1.00  0.00    +0.047 C 
ATOM      5  C   UNL     1     -25.093   4.381  10.042  1.00  0.00    +0.024 C 
ATOM      6  C   UNL     1     -27.072   4.673   8.548  1.00  0.00    +0.024 C 
ENDBRANCH   2   4
ENDBRANCH   1   2
BRANCH   1   7
ATOM      7  C   UNL     1     -24.941   8.199   6.806  1.00  0.00    +0.165 C 
BRANCH   7   8
ATOM      8  C   UNL     1     -25.866   8.956   5.838  1.00  0.00    +0.262 C 
BRANCH   8   9
ATOM      9  O   UNL     1     -27.217   8.874   6.286  1.00  0.00    -0.491 OA
BRANCH   9  10
ATOM     10  C   UNL     1     -27.961  10.021   6.239  1.00  0.00    +0.119 A 
ATOM     11  C   UNL     1     -27.644  11.179   5.528  1.00  0.00    +0.046 A 
ATOM     12  C   UNL     1     -29.139   9.981   6.991  1.00  0.00    +0.046 A 
ATOM     13  C   UNL     1     -28.500  12.284   5.568  1.00  0.00    +0.004 A 
ATOM     14  C   UNL     1     -29.994  11.084   7.030  1.00  0.00    +0.004 A 
ATOM     15  C   UNL     1     -29.674  12.236   6.318  1.00  0.00    +0.000 A 
ENDBRANCH   9  10
ENDBRANCH   8   9
ENDBRANCH   7   8
BRANCH   7  16
ATOM     16  O   UNL     1     -23.636   8.142   6.210  1.00  0.00    -0.388 OA
ATOM     17  H   UNL     1     -23.689   7.561   5.433  1.00  0.00    +0.211 HD
ENDBRANCH   7  16
ENDBRANCH   1   7
TORSDOF 7
ENDMDL
MODEL 2
REMARK VINA RESULT:    -6.773      1.648      2.308
REMARK INTER + INTRA:          -9.597
REMARK INTER:                  -9.012
REMARK INTRA:                  -0.585
REMARK UNBOUND:                -0.250
REMARK SMILES CC(C)NC[C@@H](O)COc1ccccc1
REMARK SMILES IDX 5 1 4 2 2 4 1 5 3 6 6 7 8 8 9 9 10 10 11 11 15 12 12 13
REMARK SMILES IDX 14 14 13 15 7 16
REMARK H PARENT 4 3 7 17
ROOT
ATOM      1  C   UNL     1     -24.913   8.641   6.485  1.00  0.00    +0.116 C 
ENDROOT
BRANCH   1   2
ATOM      2  N   UNL     1     -25.481   7.950   7.656  1.00  0.00    -0.312 NA
ATOM      3  H   UNL     1     -26.109   8.600   8.130  1.00  0.00    +0.123 HD
BRANCH   2   4
ATOM      4  C   UNL     1     -26.190   6.701   7.354  1.00  0.00    +0.047 C 
ATOM      5  C   UNL     1     -25.313   5.508   7.738  1.00  0.00    +0.024 C 
ATOM      6  C   UNL     1     -27.495   6.648   8.155  1.00  0.00    +0.024 C 
ENDBRANCH   2   4
ENDBRANCH   1   2
BRANCH   1   7
ATOM      7  C   UNL     1     -25.862   9.602   5.724  1.00  0.00    +0.165 C 
BRANCH   7   8
ATOM      8  C   UNL     1     -26.975  10.136   6.642  1.00  0.00    +0.262 C 
BRANCH   8   9
ATOM      9  O   UNL     1     -28.191   9.431   6.400  1.00  0.00    -0.491 OA
BRANCH   9  10
ATOM     10  C   UNL     1     -29.342   9.983   6.891  1.00  0.00    +0.119 A 
ATOM     11  C   UNL     1     -29.518  11.315   7.272  1.00  0.00    +0.046 A 
ATOM     12  C   UNL     1     -30.411   9.092   7.006  1.00  0.00    +0.046 A 
ATOM     13  C   UNL     1     -30.755  11.747   7.759  1.00  0.00    +0.004 A 
ATOM     14  C   UNL     1     -31.647   9.523   7.492  1.00  0.00    +0.004 A 
ATOM     15  C   UNL     1     -31.819  10.852   7.868  1.00  0.00    +0.000 A 
ENDBRANCH   9  10
ENDBRANCH   8   9
ENDBRANCH   7   8
BRANCH   7  16
ATOM     16  O   UNL     1     -26.489   8.949   4.610  1.00  0.00    -0.388 OA
ATOM     17  H   UNL     1     -25.879   8.997   3.855  1.00  0.00    +0.211 HD
ENDBRANCH   7  16
ENDBRANCH   1   7
TORSDOF 7
ENDMDL
MODEL 3
REMARK VINA RESULT:    -6.605      1.637      2.546
REMARK INTER + INTRA:          -9.365
REMARK INTER:                  -9.117
REMARK INTRA:                  -0.248
REMARK UNBOUND:                -0.250
REMARK SMILES CC(C)NC[C@@H](O)COc1ccccc1
REMARK SMILES IDX 5 1 4 2 2 4 1 5 3 6 6 7 8 8 9 9 10 10 11 11 15 12 12 13
REMARK SMILES IDX 14 14 13 15 7 16
REMARK H PARENT 4 3 7 17
ROOT
ATOM      1  C   UNL     1     -26.481   5.151   8.447  1.00  0.00    +0.116 C 
ENDROOT
BRANCH   1   2
ATOM      2  N   UNL     1     -26.888   4.670   9.779  1.00  0.00    -0.312 NA
ATOM      3  H   UNL     1     -27.766   4.163   9.676  1.00  0.00    +0.123 HD
BRANCH   2   4
ATOM      4  C   UNL     1     -25.899   3.826  10.460  1.00  0.00    +0.047 C 
ATOM      5  C   UNL     1     -24.500   4.410  10.260  1.00  0.00    +0.024 C 
ATOM      6  C   UNL     1     -26.217   3.776  11.959  1.00  0.00    +0.024 C 
ENDBRANCH   2   4
ENDBRANCH   1   2
BRANCH   1   7
ATOM      7  C   UNL     1     -27.268   6.361   7.881  1.00  0.00    +0.165 C 
BRANCH   7   8
ATOM      8  C   UNL     1     -26.375   7.249   6.997  1.00  0.00    +0.262 C 
BRANCH   8   9
ATOM      9  O   UNL     1     -26.212   8.532   7.597  1.00  0.00    -0.491 OA
BRANCH   9  10
ATOM     10  C   UNL     1     -26.557   9.621   6.845  1.00  0.00    +0.119 A 
ATOM     11  C   UNL     1     -25.682  10.428   6.116  1.00  0.00    +0.046 A 
ATOM     12  C   UNL     1     -27.923   9.915   6.839  1.00  0.00    +0.046 A 
ATOM     13  C   UNL     1     -26.173  11.515   5.386  1.00  0.00    +0.004 A 
ATOM     14  C   UNL     1     -28.414  11.000   6.111  1.00  0.00    +0.004 A 
ATOM     15  C   UNL     1     -27.538  11.800   5.383  1.00  0.00    +0.000 A 
ENDBRANCH   9  10
ENDBRANCH   8   9
ENDBRANCH   7   8
BRANCH   7  16
ATOM     16  O   UNL     1     -27.796   7.182   8.933  1.00  0.00    -0.388 OA
ATOM     17  H   UNL     1     -27.092   7.314   9.590  1.00  0.00    +0.211 HD
ENDBRANCH   7  16
ENDBRANCH   1   7
TORSDOF 7
ENDMDL
MODEL 4
REMARK VINA RESULT:    -6.327      8.333      9.790
REMARK INTER + INTRA:          -8.982
REMARK INTER:                  -8.425
REMARK INTRA:                  -0.557
REMARK UNBOUND:                -0.250
REMARK SMILES CC(C)NC[C@@H](O)COc1ccccc1
REMARK SMILES IDX 5 1 4 2 2 4 1 5 3 6 6 7 8 8 9 9 10 10 11 11 15 12 12 13
REMARK SMILES IDX 14 14 13 15 7 16
REMARK H PARENT 4 3 7 17
ROOT
ATOM      1  C   UNL     1     -36.061   2.662   8.954  1.00  0.00    +0.116 C 
ENDROOT
BRANCH   1   2
ATOM      2  N   UNL     1     -37.161   3.573   8.589  1.00  0.00    -0.312 NA
ATOM      3  H   UNL     1     -37.894   3.020   8.146  1.00  0.00    +0.123 HD
BRANCH   2   4
ATOM      4  C   UNL     1     -37.723   4.342   9.706  1.00  0.00    +0.047 C 
ATOM      5  C   UNL     1     -38.960   5.106   9.232  1.00  0.00    +0.024 C 
ATOM      6  C   UNL     1     -38.122   3.386  10.835  1.00  0.00    +0.024 C 
ENDBRANCH   2   4
ENDBRANCH   1   2
BRANCH   1   7
ATOM      7  C   UNL     1     -34.716   2.876   8.214  1.00  0.00    +0.165 C 
BRANCH   7   8
ATOM      8  C   UNL     1     -34.217   4.324   8.362  1.00  0.00    +0.262 C 
BRANCH   8   9
ATOM      9  O   UNL     1     -34.755   5.137   7.321  1.00  0.00    -0.491 OA
BRANCH   9  10
ATOM     10  C   UNL     1     -33.891   5.977   6.674  1.00  0.00    +0.119 A 
ATOM     11  C   UNL     1     -33.903   6.279   5.312  1.00  0.00    +0.046 A 
ATOM     12  C   UNL     1     -32.923   6.560   7.496  1.00  0.00    +0.046 A 
ATOM     13  C   UNL     1     -32.956   7.161   4.780  1.00  0.00    +0.004 A 
ATOM     14  C   UNL     1     -31.978   7.441   6.966  1.00  0.00    +0.004 A 
ATOM     15  C   UNL     1     -31.995   7.741   5.607  1.00  0.00    +0.000 A 
ENDBRANCH   9  10
ENDBRANCH   8   9
ENDBRANCH   7   8
BRANCH   7  16
ATOM     16  O   UNL     1     -34.838   2.597   6.811  1.00  0.00    -0.388 OA
ATOM     17  H   UNL     1     -33.941   2.531   6.442  1.00  0.00    +0.211 HD
ENDBRANCH   7  16
ENDBRANCH   1   7
TORSDOF 7
ENDMDL
MODEL 5
REMARK VINA RESULT:    -6.308      5.655      7.044
REMARK INTER + INTRA:          -8.955
REMARK INTER:                  -8.661
REMARK INTRA:                  -0.295
REMARK UNBOUND:                -0.250
REMARK SMILES CC(C)NC[C@@H](O)COc1ccccc1
REMARK SMILES IDX 5 1 4 2 2 4 1 5 3 6 6 7 8 8 9 9 10 10 11 11 15 12 12 13
REMARK SMILES IDX 14 14 13 15 7 16
REMARK H PARENT 4 3 7 17
ROOT
ATOM      1  C   UNL     1     -33.806   5.244   8.414  1.00  0.00    +0.116 C 
ENDROOT
BRANCH   1   2
ATOM      2  N   UNL     1     -34.650   5.667   9.546  1.00  0.00    -0.312 NA
ATOM      3  H   UNL     1     -35.576   5.890   9.182  1.00  0.00    +0.123 HD
BRANCH   2   4
ATOM      4  C   UNL     1     -34.764   4.686  10.632  1.00  0.00    +0.047 C 
ATOM      5  C   UNL     1     -34.041   3.398  10.237  1.00  0.00    +0.024 C 
ATOM      6  C   UNL     1     -34.123   5.256  11.903  1.00  0.00    +0.024 C 
ENDBRANCH   2   4
ENDBRANCH   1   2
BRANCH   1   7
ATOM      7  C   UNL     1     -33.716   6.226   7.217  1.00  0.00    +0.165 C 
BRANCH   7   8
ATOM      8  C   UNL     1     -32.453   7.099   7.301  1.00  0.00    +0.262 C 
BRANCH   8   9
ATOM      9  O   UNL     1     -32.813   8.470   7.461  1.00  0.00    -0.491 OA
BRANCH   9  10
ATOM     10  C   UNL     1     -31.801   9.389   7.432  1.00  0.00    +0.119 A 
ATOM     11  C   UNL     1     -31.883  10.716   7.857  1.00  0.00    +0.046 A 
ATOM     12  C   UNL     1     -30.593   8.909   6.918  1.00  0.00    +0.046 A 
ATOM     13  C   UNL     1     -30.763  11.550   7.772  1.00  0.00    +0.004 A 
ATOM     14  C   UNL     1     -29.476   9.741   6.833  1.00  0.00    +0.004 A 
ATOM     15  C   UNL     1     -29.561  11.063   7.260  1.00  0.00    +0.000 A 
ENDBRANCH   9  10
ENDBRANCH   8   9
ENDBRANCH   7   8
BRANCH   7  16
ATOM     16  O   UNL     1     -34.852   7.103   7.171  1.00  0.00    -0.388 OA
ATOM     17  H   UNL     1     -35.271   7.002   6.300  1.00  0.00    +0.211 HD
ENDBRANCH   7  16
ENDBRANCH   1   7
TORSDOF 7
ENDMDL
MODEL 6
REMARK VINA RESULT:    -6.255      8.233     10.757
REMARK INTER + INTRA:          -8.881
REMARK INTER:                  -8.288
REMARK INTRA:                  -0.593
REMARK UNBOUND:                -0.250
REMARK SMILES CC(C)NC[C@@H](O)COc1ccccc1
REMARK SMILES IDX 5 1 4 2 2 4 1 5 3 6 6 7 8 8 9 9 10 10 11 11 15 12 12 13
REMARK SMILES IDX 14 14 13 15 7 16
REMARK H PARENT 4 3 7 17
ROOT
ATOM      1  C   UNL     1     -35.951   5.549   8.709  1.00  0.00    +0.116 C 
ENDROOT
BRANCH   1   2
ATOM      2  N   UNL     1     -36.246   6.505   9.790  1.00  0.00    -0.312 NA
ATOM      3  H   UNL     1     -36.226   7.444   9.394  1.00  0.00    +0.123 HD
BRANCH   2   4
ATOM      4  C   UNL     1     -37.522   6.282  10.482  1.00  0.00    +0.047 C 
ATOM      5  C   UNL     1     -38.663   6.275   9.464  1.00  0.00    +0.024 C 
ATOM      6  C   UNL     1     -37.480   4.931  11.204  1.00  0.00    +0.024 C 
ENDBRANCH   2   4
ENDBRANCH   1   2
BRANCH   1   7
ATOM      7  C   UNL     1     -34.795   5.930   7.748  1.00  0.00    +0.165 C 
BRANCH   7   8
ATOM      8  C   UNL     1     -33.453   5.348   8.225  1.00  0.00    +0.262 C 
BRANCH   8   9
ATOM      9  O   UNL     1     -33.432   5.267   9.649  1.00  0.00    -0.491 OA
BRANCH   9  10
ATOM     10  C   UNL     1     -33.217   4.034  10.201  1.00  0.00    +0.119 A 
ATOM     11  C   UNL     1     -33.861   3.513  11.325  1.00  0.00    +0.046 A 
ATOM     12  C   UNL     1     -32.255   3.263   9.545  1.00  0.00    +0.046 A 
ATOM     13  C   UNL     1     -33.543   2.230  11.783  1.00  0.00    +0.004 A 
ATOM     14  C   UNL     1     -31.938   1.982  10.001  1.00  0.00    +0.004 A 
ATOM     15  C   UNL     1     -32.583   1.466  11.121  1.00  0.00    +0.000 A 
ENDBRANCH   9  10
ENDBRANCH   8   9
ENDBRANCH   7   8
BRANCH   7  16
ATOM     16  O   UNL     1     -34.644   7.354   7.648  1.00  0.00    -0.388 OA
ATOM     17  H   UNL     1     -35.263   7.764   8.275  1.00  0.00    +0.211 HD
ENDBRANCH   7  16
ENDBRANCH   1   7
TORSDOF 7
ENDMDL
MODEL 7
REMARK VINA RESULT:    -5.985      7.457      9.483
REMARK INTER + INTRA:          -8.510
REMARK INTER:                  -7.978
REMARK INTRA:                  -0.532
REMARK UNBOUND:                -0.250
REMARK SMILES CC(C)NC[C@@H](O)COc1ccccc1
REMARK SMILES IDX 5 1 4 2 2 4 1 5 3 6 6 7 8 8 9 9 10 10 11 11 15 12 12 13
REMARK SMILES IDX 14 14 13 15 7 16
REMARK H PARENT 4 3 7 17
ROOT
ATOM      1  C   UNL     1     -25.485   2.337  10.822  1.00  0.00    +0.116 C 
ENDROOT
BRANCH   1   2
ATOM      2  N   UNL     1     -24.905   0.985  10.747  1.00  0.00    -0.312 NA
ATOM      3  H   UNL     1     -24.898   0.699   9.768  1.00  0.00    +0.123 HD
BRANCH   2   4
ATOM      4  C   UNL     1     -23.556   0.858  11.313  1.00  0.00    +0.047 C 
ATOM      5  C   UNL     1     -22.884  -0.399  10.759  1.00  0.00    +0.024 C 
ATOM      6  C   UNL     1     -22.725   2.087  10.930  1.00  0.00    +0.024 C 
ENDBRANCH   2   4
ENDBRANCH   1   2
BRANCH   1   7
ATOM      7  C   UNL     1     -26.636   2.649   9.831  1.00  0.00    +0.165 C 
BRANCH   7   8
ATOM      8  C   UNL     1     -28.013   2.423  10.479  1.00  0.00    +0.262 C 
BRANCH   8   9
ATOM      9  O   UNL     1     -28.020   1.192  11.198  1.00  0.00    -0.491 OA
BRANCH   9  10
ATOM     10  C   UNL     1     -28.899   1.082  12.241  1.00  0.00    +0.119 A 
ATOM     11  C   UNL     1     -30.246   0.727  12.147  1.00  0.00    +0.046 A 
ATOM     12  C   UNL     1     -28.351   1.364  13.495  1.00  0.00    +0.046 A 
ATOM     13  C   UNL     1     -31.033   0.652  13.301  1.00  0.00    +0.004 A 
ATOM     14  C   UNL     1     -29.136   1.289  14.646  1.00  0.00    +0.004 A 
ATOM     15  C   UNL     1     -30.478   0.932  14.549  1.00  0.00    +0.000 A 
ENDBRANCH   9  10
ENDBRANCH   8   9
ENDBRANCH   7   8
BRANCH   7  16
ATOM     16  O   UNL     1     -26.562   1.819   8.662  1.00  0.00    -0.388 OA
ATOM     17  H   UNL     1     -27.346   2.002   8.117  1.00  0.00    +0.211 HD
ENDBRANCH   7  16
ENDBRANCH   1   7
TORSDOF 7
ENDMDL
MODEL 8
REMARK VINA RESULT:    -5.804      3.969      5.946
REMARK INTER + INTRA:          -8.260
REMARK INTER:                  -8.094
REMARK INTRA:                  -0.166
REMARK UNBOUND:                -0.250
REMARK SMILES CC(C)NC[C@@H](O)COc1ccccc1
REMARK SMILES IDX 5 1 4 2 2 4 1 5 3 6 6 7 8 8 9 9 10 10 11 11 15 12 12 13
REMARK SMILES IDX 14 14 13 15 7 16
REMARK H PARENT 4 3 7 17
ROOT
ATOM      1  C   UNL     1     -28.304   9.881   7.534  1.00  0.00    +0.116 C 
ENDROOT
BRANCH   1   2
ATOM      2  N   UNL     1     -28.052  10.769   6.385  1.00  0.00    -0.312 NA
ATOM      3  H   UNL     1     -27.959  11.721   6.739  1.00  0.00    +0.123 HD
BRANCH   2   4
ATOM      4  C   UNL     1     -26.878  10.419   5.577  1.00  0.00    +0.047 C 
ATOM      5  C   UNL     1     -26.568  11.556   4.604  1.00  0.00    +0.024 C 
ATOM      6  C   UNL     1     -25.673  10.198   6.498  1.00  0.00    +0.024 C 
ENDBRANCH   2   4
ENDBRANCH   1   2
BRANCH   1   7
ATOM      7  C   UNL     1     -28.425   8.367   7.220  1.00  0.00    +0.165 C 
BRANCH   7   8
ATOM      8  C   UNL     1     -29.828   7.834   7.555  1.00  0.00    +0.262 C 
BRANCH   8   9
ATOM      9  O   UNL     1     -30.759   8.243   6.555  1.00  0.00    -0.491 OA
BRANCH   9  10
ATOM     10  C   UNL     1     -31.868   7.462   6.378  1.00  0.00    +0.119 A 
ATOM     11  C   UNL     1     -32.425   6.598   7.322  1.00  0.00    +0.046 A 
ATOM     12  C   UNL     1     -32.461   7.572   5.117  1.00  0.00    +0.046 A 
ATOM     13  C   UNL     1     -33.568   5.855   7.005  1.00  0.00    +0.004 A 
ATOM     14  C   UNL     1     -33.602   6.831   4.801  1.00  0.00    +0.004 A 
ATOM     15  C   UNL     1     -34.155   5.973   5.746  1.00  0.00    +0.000 A 
ENDBRANCH   9  10
ENDBRANCH   8   9
ENDBRANCH   7   8
BRANCH   7  16
ATOM     16  O   UNL     1     -27.474   7.597   7.971  1.00  0.00    -0.388 OA
ATOM     17  H   UNL     1     -27.125   8.164   8.679  1.00  0.00    +0.211 HD
ENDBRANCH   7  16
ENDBRANCH   1   7
TORSDOF 7
ENDMDL
MODEL 9
REMARK VINA RESULT:    -5.599      9.171     10.151
REMARK INTER + INTRA:          -7.977
REMARK INTER:                  -7.675
REMARK INTRA:                  -0.302
REMARK UNBOUND:                -0.250
REMARK SMILES CC(C)NC[C@@H](O)COc1ccccc1
REMARK SMILES IDX 5 1 4 2 2 4 1 5 3 6 6 7 8 8 9 9 10 10 11 11 15 12 12 13
REMARK SMILES IDX 14 14 13 15 7 16
REMARK H PARENT 4 3 7 17
ROOT
ATOM      1  C   UNL     1     -32.161   2.738   9.576  1.00  0.00    +0.116 C 
ENDROOT
BRANCH   1   2
ATOM      2  N   UNL     1     -31.867   1.294   9.545  1.00  0.00    -0.312 NA
ATOM      3  H   UNL     1     -31.783   1.011   8.569  1.00  0.00    +0.123 HD
BRANCH   2   4
ATOM      4  C   UNL     1     -30.666   0.892  10.287  1.00  0.00    +0.047 C 
ATOM      5  C   UNL     1     -30.949   0.945  11.789  1.00  0.00    +0.024 C 
ATOM      6  C   UNL     1     -30.280  -0.538   9.895  1.00  0.00    +0.024 C 
ENDBRANCH   2   4
ENDBRANCH   1   2
BRANCH   1   7
ATOM      7  C   UNL     1     -33.647   3.142   9.391  1.00  0.00    +0.165 C 
BRANCH   7   8
ATOM      8  C   UNL     1     -34.362   3.286  10.745  1.00  0.00    +0.262 C 
BRANCH   8   9
ATOM      9  O   UNL     1     -35.764   3.081  10.583  1.00  0.00    -0.491 OA
BRANCH   9  10
ATOM     10  C   UNL     1     -36.549   4.195  10.470  1.00  0.00    +0.119 A 
ATOM     11  C   UNL     1     -36.236   5.473  10.936  1.00  0.00    +0.046 A 
ATOM     12  C   UNL     1     -37.769   3.984   9.823  1.00  0.00    +0.046 A 
ATOM     13  C   UNL     1     -37.136   6.528  10.750  1.00  0.00    +0.004 A 
ATOM     14  C   UNL     1     -38.667   5.036   9.637  1.00  0.00    +0.004 A 
ATOM     15  C   UNL     1     -38.350   6.309  10.101  1.00  0.00    +0.000 A 
ENDBRANCH   9  10
ENDBRANCH   8   9
ENDBRANCH   7   8
BRANCH   7  16
ATOM     16  O   UNL     1     -34.364   2.168   8.618  1.00  0.00    -0.388 OA
ATOM     17  H   UNL     1     -35.295   2.196   8.896  1.00  0.00    +0.211 HD
ENDBRANCH   7  16
ENDBRANCH   1   7
TORSDOF 7
ENDMDL
