MODEL 1
REMARK VINA RESULT:    -5.502      0.000      0.000
REMARK INTER + INTRA:          -5.663
REMARK INTER:                  -5.663
REMARK INTRA:                   0.000
REMARK UNBOUND:                 0.000
REMARK SMILES Nc1ccc(F)cc1
REMARK SMILES IDX 2 1 3 2 4 3 5 4 6 5 7 6 8 7 1 8
REMARK H PARENT 1 9 1 10
ROOT
ATOM      1  C   UNL     1     -26.781  11.485   5.397  1.00  0.00    +0.032 A 
ATOM      2  C   UNL     1     -27.514  12.640   5.104  1.00  0.00    +0.028 A 
ATOM      3  C   UNL     1     -28.848  12.756   5.504  1.00  0.00    +0.041 A 
ATOM      4  C   UNL     1     -29.433  11.732   6.236  1.00  0.00    +0.123 A 
ATOM      5  F   UNL     1     -30.710  11.843   6.626  1.00  0.00    -0.207 F 
ATOM      6  C   UNL     1     -28.706  10.603   6.588  1.00  0.00    +0.041 A 
ATOM      7  C   UNL     1     -27.373  10.491   6.185  1.00  0.00    +0.028 A 
ENDROOT
BRANCH   1   8
ATOM      8  N   UNL     1     -25.415  11.425   5.099  1.00  0.00    -0.399 N 
ATOM      9  H   UNL     1     -24.876  12.199   5.473  1.00  0.00    +0.156 HD
ATOM     10  H   UNL     1     -25.214  11.253   4.119  1.00  0.00    +0.156 HD
ENDBRANCH   1   8
TORSDOF 1
ENDMDL
MODEL 2
REMARK VINA RESULT:    -5.499      1.948      2.528
REMARK INTER + INTRA:          -5.660
REMARK INTER:                  -5.660
REMARK INTRA:                   0.000
REMARK UNBOUND:                 0.000
REMARK SMILES Nc1ccc(F)cc1
REMARK SMILES IDX 2 1 3 2 4 3 5 4 6 5 7 6 8 7 1 8
REMARK H PARENT 1 9 1 10
ROOT
ATOM      1  C   UNL     1     -28.427  12.494   5.372  1.00  0.00    +0.032 A 
ATOM      2  C   UNL     1     -29.537  12.156   6.153  1.00  0.00    +0.028 A 
ATOM      3  C   UNL     1     -29.558  10.963   6.879  1.00  0.00    +0.041 A 
ATOM      4  C   UNL     1     -28.448  10.129   6.855  1.00  0.00    +0.123 A 
ATOM      5  F   UNL     1     -28.463   8.986   7.555  1.00  0.00    -0.207 F 
ATOM      6  C   UNL     1     -27.313  10.474   6.133  1.00  0.00    +0.041 A 
ATOM      7  C   UNL     1     -27.298  11.668   5.408  1.00  0.00    +0.028 A 
ENDROOT
BRANCH   1   8
ATOM      8  N   UNL     1     -28.364  13.744   4.744  1.00  0.00    -0.399 N 
ATOM      9  H   UNL     1     -27.448  14.179   4.780  1.00  0.00    +0.156 HD
ATOM     10  H   UNL     1     -29.105  14.381   5.018  1.00  0.00    +0.156 HD
ENDBRANCH   1   8
TORSDOF 1
ENDMDL
MODEL 3
REMARK VINA RESULT:    -5.214      3.759      4.540
REMARK INTER + INTRA:          -5.367
REMARK INTER:                  -5.367
REMARK INTRA:                   0.000
REMARK UNBOUND:                 0.000
REMARK SMILES Nc1ccc(F)cc1
REMARK SMILES IDX 2 1 3 2 4 3 5 4 6 5 7 6 8 7 1 8
REMARK H PARENT 1 9 1 10
ROOT
ATOM      1  C   UNL     1     -31.778   9.607   7.552  1.00  0.00    +0.032 A 
ATOM      2  C   UNL     1     -31.476  10.972   7.608  1.00  0.00    +0.028 A 
ATOM      3  C   UNL     1     -30.177  11.424   7.362  1.00  0.00    +0.041 A 
ATOM      4  C   UNL     1     -29.190  10.510   7.018  1.00  0.00    +0.123 A 
ATOM      5  F   UNL     1     -27.944  10.941   6.776  1.00  0.00    -0.207 F 
ATOM      6  C   UNL     1     -29.482   9.157   6.899  1.00  0.00    +0.041 A 
ATOM      7  C   UNL     1     -30.782   8.711   7.147  1.00  0.00    +0.028 A 
ENDROOT
BRANCH   1   8
ATOM      8  N   UNL     1     -33.103   9.175   7.681  1.00  0.00    -0.399 N 
ATOM      9  H   UNL     1     -33.659   9.289   6.840  1.00  0.00    +0.156 HD
ATOM     10  H   UNL     1     -33.574   9.530   8.506  1.00  0.00    +0.156 HD
ENDBRANCH   1   8
TORSDOF 1
ENDMDL
MODEL 4
REMARK VINA RESULT:    -4.661      2.259      2.960
REMARK INTER + INTRA:          -4.797
REMARK INTER:                  -4.797
REMARK INTRA:                   0.000
REMARK UNBOUND:                 0.000
REMARK SMILES Nc1ccc(F)cc1
REMARK SMILES IDX 2 1 3 2 4 3 5 4 6 5 7 6 8 7 1 8
REMARK H PARENT 1 9 1 10
ROOT
ATOM      1  C   UNL     1     -29.308  11.633   6.027  1.00  0.00    +0.032 A 
ATOM      2  C   UNL     1     -30.670  11.600   6.345  1.00  0.00    +0.028 A 
ATOM      3  C   UNL     1     -31.237  10.463   6.925  1.00  0.00    +0.041 A 
ATOM      4  C   UNL     1     -30.429   9.374   7.226  1.00  0.00    +0.123 A 
ATOM      5  F   UNL     1     -30.969   8.284   7.788  1.00  0.00    -0.207 F 
ATOM      6  C   UNL     1     -29.064   9.409   6.973  1.00  0.00    +0.041 A 
ATOM      7  C   UNL     1     -28.502  10.549   6.392  1.00  0.00    +0.028 A 
ENDROOT
BRANCH   1   8
ATOM      8  N   UNL     1     -28.725  12.816   5.558  1.00  0.00    -0.399 N 
ATOM      9  H   UNL     1     -29.181  13.661   5.886  1.00  0.00    +0.156 HD
ATOM     10  H   UNL     1     -28.565  12.828   4.556  1.00  0.00    +0.156 HD
ENDBRANCH   1   8
TORSDOF 1
ENDMDL
MODEL 5
REMARK VINA RESULT:    -4.617     12.019     12.648
REMARK INTER + INTRA:          -4.752
REMARK INTER:                  -4.752
REMARK INTRA:                   0.000
REMARK UNBOUND:                 0.000
REMARK SMILES Nc1ccc(F)cc1
REMARK SMILES IDX 2 1 3 2 4 3 5 4 6 5 7 6 8 7 1 8
REMARK H PARENT 1 9 1 10
ROOT
ATOM      1  C   UNL     1     -38.449   4.640  10.158  1.00  0.00    +0.032 A 
ATOM      2  C   UNL     1     -38.223   5.934  10.639  1.00  0.00    +0.028 A 
ATOM      3  C   UNL     1     -37.002   6.270  11.229  1.00  0.00    +0.041 A 
ATOM      4  C   UNL     1     -35.992   5.318  11.299  1.00  0.00    +0.123 A 
ATOM      5  F   UNL     1     -34.818   5.639  11.859  1.00  0.00    -0.207 F 
ATOM      6  C   UNL     1     -36.176   4.045  10.775  1.00  0.00    +0.041 A 
ATOM      7  C   UNL     1     -37.400   3.715  10.187  1.00  0.00    +0.028 A 
ENDROOT
BRANCH   1   8
ATOM      8  N   UNL     1     -39.627   4.345   9.462  1.00  0.00    -0.399 N 
ATOM      9  H   UNL     1     -40.422   4.914   9.735  1.00  0.00    +0.156 HD
ATOM     10  H   UNL     1     -39.853   3.357   9.433  1.00  0.00    +0.156 HD
ENDBRANCH   1   8
TORSDOF 1
ENDMDL
MODEL 6
REMARK VINA RESULT:    -4.511     11.103     12.082
REMARK INTER + INTRA:          -4.642
REMARK INTER:                  -4.642
REMARK INTRA:                   0.000
REMARK UNBOUND:                 0.000
REMARK SMILES Nc1ccc(F)cc1
REMARK SMILES IDX 2 1 3 2 4 3 5 4 6 5 7 6 8 7 1 8
REMARK H PARENT 1 9 1 10
ROOT
ATOM      1  C   UNL     1     -36.191   5.800   9.377  1.00  0.00    +0.032 A 
ATOM      2  C   UNL     1     -36.341   4.429   9.143  1.00  0.00    +0.028 A 
ATOM      3  C   UNL     1     -37.126   3.645   9.991  1.00  0.00    +0.041 A 
ATOM      4  C   UNL     1     -37.795   4.243  11.050  1.00  0.00    +0.123 A 
ATOM      5  F   UNL     1     -38.553   3.494  11.863  1.00  0.00    -0.207 F 
ATOM      6  C   UNL     1     -37.706   5.612  11.266  1.00  0.00    +0.041 A 
ATOM      7  C   UNL     1     -36.919   6.392  10.415  1.00  0.00    +0.028 A 
ENDROOT
BRANCH   1   8
ATOM      8  N   UNL     1     -35.502   6.599   8.457  1.00  0.00    -0.399 N 
ATOM      9  H   UNL     1     -34.847   7.248   8.881  1.00  0.00    +0.156 HD
ATOM     10  H   UNL     1     -36.101   7.048   7.772  1.00  0.00    +0.156 HD
ENDBRANCH   1   8
TORSDOF 1
ENDMDL
MODEL 7
REMARK VINA RESULT:    -4.392      9.451     10.393
REMARK INTER + INTRA:          -4.520
REMARK INTER:                  -4.520
REMARK INTRA:                   0.000
REMARK UNBOUND:                 0.000
REMARK SMILES Nc1ccc(F)cc1
REMARK SMILES IDX 2 1 3 2 4 3 5 4 6 5 7 6 8 7 1 8
REMARK H PARENT 1 9 1 10
ROOT
ATOM      1  C   UNL     1     -34.846   6.157   7.783  1.00  0.00    +0.032 A 
ATOM      2  C   UNL     1     -34.425   5.117   6.948  1.00  0.00    +0.028 A 
ATOM      3  C   UNL     1     -34.916   3.821   7.123  1.00  0.00    +0.041 A 
ATOM      4  C   UNL     1     -35.862   3.577   8.109  1.00  0.00    +0.123 A 
ATOM      5  F   UNL     1     -36.338   2.335   8.276  1.00  0.00    -0.207 F 
ATOM      6  C   UNL     1     -36.337   4.606   8.911  1.00  0.00    +0.041 A 
ATOM      7  C   UNL     1     -35.842   5.900   8.732  1.00  0.00    +0.028 A 
ENDROOT
BRANCH   1   8
ATOM      8  N   UNL     1     -34.443   7.472   7.527  1.00  0.00    -0.399 N 
ATOM      9  H   UNL     1     -34.855   8.161   8.148  1.00  0.00    +0.156 HD
ATOM     10  H   UNL     1     -34.512   7.742   6.551  1.00  0.00    +0.156 HD
ENDBRANCH   1   8
TORSDOF 1
ENDMDL
MODEL 8
REMARK VINA RESULT:    -4.321      5.920      6.857
REMARK INTER + INTRA:          -4.447
REMARK INTER:                  -4.447
REMARK INTRA:                   0.000
REMARK UNBOUND:                 0.000
REMARK SMILES Nc1ccc(F)cc1
REMARK SMILES IDX 2 1 3 2 4 3 5 4 6 5 7 6 8 7 1 8
REMARK H PARENT 1 9 1 10
ROOT
ATOM      1  C   UNL     1     -31.465   7.754   6.578  1.00  0.00    +0.032 A 
ATOM      2  C   UNL     1     -31.815   6.987   7.694  1.00  0.00    +0.028 A 
ATOM      3  C   UNL     1     -32.877   6.082   7.631  1.00  0.00    +0.041 A 
ATOM      4  C   UNL     1     -33.563   5.916   6.435  1.00  0.00    +0.123 A 
ATOM      5  F   UNL     1     -34.579   5.045   6.370  1.00  0.00    -0.207 F 
ATOM      6  C   UNL     1     -33.195   6.625   5.299  1.00  0.00    +0.041 A 
ATOM      7  C   UNL     1     -32.132   7.529   5.368  1.00  0.00    +0.028 A 
ENDROOT
BRANCH   1   8
ATOM      8  N   UNL     1     -30.327   8.568   6.613  1.00  0.00    -0.399 N 
ATOM      9  H   UNL     1     -30.076   8.966   5.714  1.00  0.00    +0.156 HD
ATOM     10  H   UNL     1     -29.534   8.147   7.084  1.00  0.00    +0.156 HD
ENDBRANCH   1   8
TORSDOF 1
ENDMDL
MODEL 9
REMARK VINA RESULT:    -4.291     11.301     11.793
REMARK INTER + INTRA:          -4.416
REMARK INTER:                  -4.416
REMARK INTRA:                   0.000
REMARK UNBOUND:                 0.000
REMARK SMILES Nc1ccc(F)cc1
REMARK SMILES IDX 2 1 3 2 4 3 5 4 6 5 7 6 8 7 1 8
REMARK H PARENT 1 9 1 10
ROOT
ATOM      1  C   UNL     1     -35.544   5.253  11.051  1.00  0.00    +0.032 A 
ATOM      2  C   UNL     1     -35.545   4.536   9.849  1.00  0.00    +0.028 A 
ATOM      3  C   UNL     1     -36.717   4.405   9.100  1.00  0.00    +0.041 A 
ATOM      4  C   UNL     1     -37.879   5.029   9.535  1.00  0.00    +0.123 A 
ATOM      5  F   UNL     1     -39.003   4.910   8.816  1.00  0.00    -0.207 F 
ATOM      6  C   UNL     1     -37.885   5.794  10.694  1.00  0.00    +0.041 A 
ATOM      7  C   UNL     1     -36.711   5.921  11.440  1.00  0.00    +0.028 A 
ENDROOT
BRANCH   1   8
ATOM      8  N   UNL     1     -34.344   5.480  11.733  1.00  0.00    -0.399 N 
ATOM      9  H   UNL     1     -34.381   6.252  12.390  1.00  0.00    +0.156 HD
ATOM     10  H   UNL     1     -33.529   5.525  11.130  1.00  0.00    +0.156 HD
ENDBRANCH   1   8
TORSDOF 1
ENDMDL
