REMARK SMILES CCCCOc1ccc(NC[S](=O)=O)cn1
REMARK SMILES IDX 5 1 4 2 3 3 2 4 1 5 6 6 7 7 16 8 8 9 15 10 9 11 10 12 11 14
REMARK SMILES IDX 12 15 13 16 14 17
REMARK H PARENT 10 13
ROOT
ATOM      1  O   UNL     1      -1.532  -1.116   0.221  1.00  0.00    -0.478 OA
ENDROOT
BRANCH   1   2
ATOM      2  C   UNL     1      -2.327  -0.513  -0.801  1.00  0.00    +0.231 C 
BRANCH   2   3
ATOM      3  C   UNL     1      -3.804  -0.739  -0.474  1.00  0.00    +0.041 C 
BRANCH   3   4
ATOM      4  C   UNL     1      -4.247  -0.186   0.884  1.00  0.00    +0.000 C 
ATOM      5  C   UNL     1      -4.109   1.324   0.998  1.00  0.00    +0.004 C 
ENDBRANCH   3   4
ENDBRANCH   2   3
ENDBRANCH   1   2
BRANCH   1   6
ATOM      6  C   UNL     1      -0.176  -0.926   0.031  1.00  0.00    +0.213 A 
ATOM      7  C   UNL     1       0.654  -1.412   1.025  1.00  0.00    +0.070 A 
ATOM      8  N   UNL     1       0.270  -0.316  -1.084  1.00  0.00    -0.220 NA
ATOM      9  C   UNL     1       2.030  -1.246   0.877  1.00  0.00    +0.033 A 
ATOM     10  C   UNL     1       1.618  -0.168  -1.187  1.00  0.00    +0.140 A 
ATOM     11  C   UNL     1       2.553  -0.576  -0.232  1.00  0.00    +0.054 A 
BRANCH  11  12
ATOM     12  N   UNL     1       3.942  -0.509  -0.395  1.00  0.00    -0.367 N 
ATOM     13  H   UNL     1       4.407  -0.547   0.520  1.00  0.00    +0.161 HD
BRANCH  12  14
ATOM     14  C   UNL     1       4.512   0.680  -1.043  1.00  0.00    +0.285 C 
BRANCH  14  15
ATOM     15  S   UNL     1       4.718   2.111   0.150  1.00  0.00    +0.207 S 
ATOM     16  O   UNL     1       5.597   3.038  -0.658  1.00  0.00    -0.188 OA
ATOM     17  O   UNL     1       5.410   1.410   1.300  1.00  0.00    -0.188 OA
ENDBRANCH  14  15
ENDBRANCH  12  14
ENDBRANCH  11  12
ENDBRANCH   1   6
TORSDOF 7
