REMARK SMILES Nc1ccc(S(=O)(=O)O)c(O)c1
REMARK SMILES IDX 2 1 12 2 10 3 5 4 4 5 3 6 1 7 11 10 6 12 7 13 8 14 9 15
REMARK H PARENT 1 8 1 9 11 11 9 16
ROOT
ATOM      1  C   UNL     1       1.928   0.009  -0.171  1.00  0.00    +0.035 A 
ATOM      2  C   UNL     1       1.127   1.054   0.304  1.00  0.00    +0.073 A 
ATOM      3  C   UNL     1      -0.268   0.953   0.279  1.00  0.00    +0.138 A 
ATOM      4  C   UNL     1      -0.870  -0.213  -0.185  1.00  0.00    +0.136 A 
ATOM      5  C   UNL     1      -0.078  -1.287  -0.607  1.00  0.00    +0.029 A 
ATOM      6  C   UNL     1       1.315  -1.178  -0.577  1.00  0.00    +0.027 A 
ENDROOT
BRANCH   1   7
ATOM      7  N   UNL     1       3.319   0.068  -0.030  1.00  0.00    -0.399 N 
ATOM      8  H   UNL     1       3.703   1.008  -0.048  1.00  0.00    +0.156 HD
ATOM      9  H   UNL     1       3.825  -0.562  -0.647  1.00  0.00    +0.156 HD
ENDBRANCH   1   7
BRANCH   3  10
ATOM     10  O   UNL     1      -1.023   2.000   0.717  1.00  0.00    -0.506 OA
ATOM     11  H   UNL     1      -0.448   2.742   0.968  1.00  0.00    +0.293 HD
ENDBRANCH   3  10
BRANCH   4  12
ATOM     12  S   UNL     1      -2.630  -0.382  -0.223  1.00  0.00    +0.298 S 
ATOM     13  O   UNL     1      -3.159   0.542  -1.201  1.00  0.00    -0.194 OA
ATOM     14  O   UNL     1      -2.937  -1.798  -0.296  1.00  0.00    -0.194 OA
BRANCH  12  15
ATOM     15  O   UNL     1      -3.155   0.053   1.239  1.00  0.00    -0.282 OA
ATOM     16  H   UNL     1      -3.637  -0.712   1.615  1.00  0.00    +0.234 HD
ENDBRANCH  12  15
ENDBRANCH   4  12
TORSDOF 4
