MODEL 1
REMARK VINA RESULT:    -6.044      0.000      0.000
REMARK INTER + INTRA:          -6.812
REMARK INTER:                  -6.750
REMARK INTRA:                  -0.062
REMARK UNBOUND:                -0.062
REMARK SMILES CN(N=O)c1ccccc1
REMARK SMILES IDX 1 1 2 2 3 3 4 4 5 5 6 6 10 7 7 8 9 9 8 10
REMARK H PARENT
ROOT
ATOM      1  C   UNL     1     -30.061   8.175   7.277  1.00  0.00    +0.178 C 
ATOM      2  N   UNL     1     -28.724   8.768   7.385  1.00  0.00    -0.232 N 
ENDROOT
BRANCH   2   3
ATOM      3  N   UNL     1     -27.680   8.014   7.813  1.00  0.00    +0.057 NA
ATOM      4  O   UNL     1     -27.969   7.250   8.741  1.00  0.00    -0.125 OA
ENDBRANCH   2   3
BRANCH   2   5
ATOM      5  C   UNL     1     -28.593  10.035   6.733  1.00  0.00    +0.062 A 
ATOM      6  C   UNL     1     -27.402  10.398   6.073  1.00  0.00    +0.028 A 
ATOM      7  C   UNL     1     -29.634  10.985   6.725  1.00  0.00    +0.028 A 
ATOM      8  C   UNL     1     -27.261  11.633   5.429  1.00  0.00    +0.002 A 
ATOM      9  C   UNL     1     -29.497  12.222   6.083  1.00  0.00    +0.002 A 
ATOM     10  C   UNL     1     -28.311  12.544   5.433  1.00  0.00    +0.000 A 
ENDBRANCH   2   5
TORSDOF 2
ENDMDL
MODEL 2
REMARK VINA RESULT:    -5.742      2.411      2.972
REMARK INTER + INTRA:          -6.475
REMARK INTER:                  -6.384
REMARK INTRA:                  -0.090
REMARK UNBOUND:                -0.062
REMARK SMILES CN(N=O)c1ccccc1
REMARK SMILES IDX 1 1 2 2 3 3 4 4 5 5 6 6 10 7 7 8 9 9 8 10
REMARK H PARENT
ROOT
ATOM      1  C   UNL     1     -26.869   8.396   6.870  1.00  0.00    +0.178 C 
ATOM      2  N   UNL     1     -27.094   9.661   6.163  1.00  0.00    -0.232 N 
ENDROOT
BRANCH   2   3
ATOM      3  N   UNL     1     -26.254  10.040   5.165  1.00  0.00    +0.057 NA
ATOM      4  O   UNL     1     -26.527   9.534   4.071  1.00  0.00    -0.125 OA
ENDBRANCH   2   3
BRANCH   2   5
ATOM      5  C   UNL     1     -28.378  10.246   6.405  1.00  0.00    +0.062 A 
ATOM      6  C   UNL     1     -28.667  11.565   6.004  1.00  0.00    +0.028 A 
ATOM      7  C   UNL     1     -29.409   9.544   7.061  1.00  0.00    +0.028 A 
ATOM      8  C   UNL     1     -29.920  12.148   6.231  1.00  0.00    +0.002 A 
ATOM      9  C   UNL     1     -30.662  10.124   7.292  1.00  0.00    +0.002 A 
ATOM     10  C   UNL     1     -30.918  11.425   6.874  1.00  0.00    +0.000 A 
ENDBRANCH   2   5
TORSDOF 2
ENDMDL
MODEL 3
REMARK VINA RESULT:    -5.718      1.782      2.392
REMARK INTER + INTRA:          -6.448
REMARK INTER:                  -6.369
REMARK INTRA:                  -0.079
REMARK UNBOUND:                -0.062
REMARK SMILES CN(N=O)c1ccccc1
REMARK SMILES IDX 1 1 2 2 3 3 4 4 5 5 6 6 10 7 7 8 9 9 8 10
REMARK H PARENT
ROOT
ATOM      1  C   UNL     1     -27.645   8.171   7.161  1.00  0.00    +0.178 C 
ATOM      2  N   UNL     1     -26.720   9.202   6.677  1.00  0.00    -0.232 N 
ENDROOT
BRANCH   2   3
ATOM      3  N   UNL     1     -25.428   8.883   6.410  1.00  0.00    +0.057 NA
ATOM      4  O   UNL     1     -24.785   8.545   7.409  1.00  0.00    -0.125 OA
ENDBRANCH   2   3
BRANCH   2   5
ATOM      5  C   UNL     1     -27.362  10.407   6.246  1.00  0.00    +0.062 A 
ATOM      6  C   UNL     1     -28.707  10.674   6.568  1.00  0.00    +0.028 A 
ATOM      7  C   UNL     1     -26.692  11.377   5.474  1.00  0.00    +0.028 A 
ATOM      8  C   UNL     1     -29.346  11.849   6.156  1.00  0.00    +0.002 A 
ATOM      9  C   UNL     1     -27.328  12.554   5.059  1.00  0.00    +0.002 A 
ATOM     10  C   UNL     1     -28.654  12.790   5.402  1.00  0.00    +0.000 A 
ENDBRANCH   2   5
TORSDOF 2
ENDMDL
MODEL 4
REMARK VINA RESULT:    -5.478      2.228      2.759
REMARK INTER + INTRA:          -6.180
REMARK INTER:                  -6.116
REMARK INTRA:                  -0.065
REMARK UNBOUND:                -0.062
REMARK SMILES CN(N=O)c1ccccc1
REMARK SMILES IDX 1 1 2 2 3 3 4 4 5 5 6 6 10 7 7 8 9 9 8 10
REMARK H PARENT
ROOT
ATOM      1  C   UNL     1     -25.421   6.253   7.256  1.00  0.00    +0.178 C 
ATOM      2  N   UNL     1     -26.732   6.815   7.599  1.00  0.00    -0.232 N 
ENDROOT
BRANCH   2   3
ATOM      3  N   UNL     1     -27.428   6.319   8.653  1.00  0.00    +0.057 NA
ATOM      4  O   UNL     1     -26.982   5.249   9.081  1.00  0.00    -0.125 OA
ENDBRANCH   2   3
BRANCH   2   5
ATOM      5  C   UNL     1     -27.023   8.057   6.950  1.00  0.00    +0.062 A 
ATOM      6  C   UNL     1     -26.381   8.422   5.750  1.00  0.00    +0.028 A 
ATOM      7  C   UNL     1     -27.950   8.978   7.477  1.00  0.00    +0.028 A 
ATOM      8  C   UNL     1     -26.659   9.632   5.103  1.00  0.00    +0.002 A 
ATOM      9  C   UNL     1     -28.229  10.190   6.834  1.00  0.00    +0.002 A 
ATOM     10  C   UNL     1     -27.585  10.516   5.645  1.00  0.00    +0.000 A 
ENDBRANCH   2   5
TORSDOF 2
ENDMDL
MODEL 5
REMARK VINA RESULT:    -5.381      2.224      2.794
REMARK INTER + INTRA:          -6.072
REMARK INTER:                  -5.999
REMARK INTRA:                  -0.072
REMARK UNBOUND:                -0.062
REMARK SMILES CN(N=O)c1ccccc1
REMARK SMILES IDX 1 1 2 2 3 3 4 4 5 5 6 6 10 7 7 8 9 9 8 10
REMARK H PARENT
ROOT
ATOM      1  C   UNL     1     -30.971  11.718   7.643  1.00  0.00    +0.178 C 
ATOM      2  N   UNL     1     -30.119  10.621   7.172  1.00  0.00    -0.232 N 
ENDROOT
BRANCH   2   3
ATOM      3  N   UNL     1     -30.578   9.343   7.202  1.00  0.00    +0.057 NA
ATOM      4  O   UNL     1     -31.726   9.219   6.763  1.00  0.00    -0.125 OA
ENDBRANCH   2   3
BRANCH   2   5
ATOM      5  C   UNL     1     -28.968  11.050   6.436  1.00  0.00    +0.062 A 
ATOM      6  C   UNL     1     -28.927  12.314   5.816  1.00  0.00    +0.028 A 
ATOM      7  C   UNL     1     -27.830  10.233   6.284  1.00  0.00    +0.028 A 
ATOM      8  C   UNL     1     -27.807  12.747   5.097  1.00  0.00    +0.002 A 
ATOM      9  C   UNL     1     -26.708  10.662   5.564  1.00  0.00    +0.002 A 
ATOM     10  C   UNL     1     -26.696  11.921   4.973  1.00  0.00    +0.000 A 
ENDBRANCH   2   5
TORSDOF 2
ENDMDL
MODEL 6
REMARK VINA RESULT:    -5.156      6.196      7.976
REMARK INTER + INTRA:          -5.821
REMARK INTER:                  -5.769
REMARK INTRA:                  -0.052
REMARK UNBOUND:                -0.062
REMARK SMILES CN(N=O)c1ccccc1
REMARK SMILES IDX 1 1 2 2 3 3 4 4 5 5 6 6 10 7 7 8 9 9 8 10
REMARK H PARENT
ROOT
ATOM      1  C   UNL     1     -25.310   6.137   7.957  1.00  0.00    +0.178 C 
ATOM      2  N   UNL     1     -26.328   5.485   8.786  1.00  0.00    -0.232 N 
ENDROOT
BRANCH   2   3
ATOM      3  N   UNL     1     -27.631   5.852   8.676  1.00  0.00    +0.057 NA
ATOM      4  O   UNL     1     -27.795   7.075   8.597  1.00  0.00    -0.125 OA
ENDBRANCH   2   3
BRANCH   2   5
ATOM      5  C   UNL     1     -25.876   4.292   9.435  1.00  0.00    +0.062 A 
ATOM      6  C   UNL     1     -24.791   4.314  10.332  1.00  0.00    +0.028 A 
ATOM      7  C   UNL     1     -26.481   3.039   9.206  1.00  0.00    +0.028 A 
ATOM      8  C   UNL     1     -24.341   3.156  10.977  1.00  0.00    +0.002 A 
ATOM      9  C   UNL     1     -26.033   1.878   9.847  1.00  0.00    +0.002 A 
ATOM     10  C   UNL     1     -24.964   1.938  10.735  1.00  0.00    +0.000 A 
ENDBRANCH   2   5
TORSDOF 2
ENDMDL
MODEL 7
REMARK VINA RESULT:    -5.125      2.984      3.558
REMARK INTER + INTRA:          -5.786
REMARK INTER:                  -5.683
REMARK INTRA:                  -0.103
REMARK UNBOUND:                -0.062
REMARK SMILES CN(N=O)c1ccccc1
REMARK SMILES IDX 1 1 2 2 3 3 4 4 5 5 6 6 10 7 7 8 9 9 8 10
REMARK H PARENT
ROOT
ATOM      1  C   UNL     1     -31.419   6.789   8.094  1.00  0.00    +0.178 C 
ATOM      2  N   UNL     1     -31.783   7.744   7.043  1.00  0.00    -0.232 N 
ENDROOT
BRANCH   2   3
ATOM      3  N   UNL     1     -32.786   7.451   6.176  1.00  0.00    +0.057 NA
ATOM      4  O   UNL     1     -32.515   7.714   4.999  1.00  0.00    -0.125 OA
ENDBRANCH   2   3
BRANCH   2   5
ATOM      5  C   UNL     1     -31.225   9.050   7.222  1.00  0.00    +0.062 A 
ATOM      6  C   UNL     1     -29.872   9.313   6.928  1.00  0.00    +0.028 A 
ATOM      7  C   UNL     1     -31.988  10.131   7.707  1.00  0.00    +0.028 A 
ATOM      8  C   UNL     1     -29.314  10.586   7.095  1.00  0.00    +0.002 A 
ATOM      9  C   UNL     1     -31.433  11.406   7.877  1.00  0.00    +0.002 A 
ATOM     10  C   UNL     1     -30.096  11.633   7.569  1.00  0.00    +0.000 A 
ENDBRANCH   2   5
TORSDOF 2
ENDMDL
MODEL 8
REMARK VINA RESULT:    -4.975      3.150      5.279
REMARK INTER + INTRA:          -5.619
REMARK INTER:                  -5.555
REMARK INTRA:                  -0.063
REMARK UNBOUND:                -0.062
REMARK SMILES CN(N=O)c1ccccc1
REMARK SMILES IDX 1 1 2 2 3 3 4 4 5 5 6 6 10 7 7 8 9 9 8 10
REMARK H PARENT
ROOT
ATOM      1  C   UNL     1     -29.361   9.338   7.006  1.00  0.00    +0.178 C 
ATOM      2  N   UNL     1     -30.794   9.466   7.293  1.00  0.00    -0.232 N 
ENDROOT
BRANCH   2   3
ATOM      3  N   UNL     1     -31.309  10.667   7.659  1.00  0.00    +0.057 NA
ATOM      4  O   UNL     1     -32.265  10.580   8.437  1.00  0.00    -0.125 OA
ENDBRANCH   2   3
BRANCH   2   5
ATOM      5  C   UNL     1     -31.578   8.347   6.865  1.00  0.00    +0.062 A 
ATOM      6  C   UNL     1     -32.090   8.271   5.555  1.00  0.00    +0.028 A 
ATOM      7  C   UNL     1     -31.886   7.275   7.727  1.00  0.00    +0.028 A 
ATOM      8  C   UNL     1     -32.854   7.182   5.122  1.00  0.00    +0.002 A 
ATOM      9  C   UNL     1     -32.652   6.184   7.298  1.00  0.00    +0.002 A 
ATOM     10  C   UNL     1     -33.134   6.137   5.995  1.00  0.00    +0.000 A 
ENDBRANCH   2   5
TORSDOF 2
ENDMDL
MODEL 9
REMARK VINA RESULT:    -4.948      5.685      6.744
REMARK INTER + INTRA:          -5.588
REMARK INTER:                  -5.623
REMARK INTRA:                   0.035
REMARK UNBOUND:                -0.062
REMARK SMILES CN(N=O)c1ccccc1
REMARK SMILES IDX 1 1 2 2 3 3 4 4 5 5 6 6 10 7 7 8 9 9 8 10
REMARK H PARENT
ROOT
ATOM      1  C   UNL     1     -32.967   4.610   9.270  1.00  0.00    +0.178 C 
ATOM      2  N   UNL     1     -33.997   5.261   8.454  1.00  0.00    -0.232 N 
ENDROOT
BRANCH   2   3
ATOM      3  N   UNL     1     -35.260   5.396   8.935  1.00  0.00    +0.057 NA
ATOM      4  O   UNL     1     -35.828   6.424   8.550  1.00  0.00    -0.125 OA
ENDBRANCH   2   3
BRANCH   2   5
ATOM      5  C   UNL     1     -33.484   5.968   7.320  1.00  0.00    +0.062 A 
ATOM      6  C   UNL     1     -32.461   6.927   7.458  1.00  0.00    +0.028 A 
ATOM      7  C   UNL     1     -33.977   5.753   6.017  1.00  0.00    +0.028 A 
ATOM      8  C   UNL     1     -31.947   7.622   6.358  1.00  0.00    +0.002 A 
ATOM      9  C   UNL     1     -33.467   6.448   4.914  1.00  0.00    +0.002 A 
ATOM     10  C   UNL     1     -32.450   7.381   5.084  1.00  0.00    +0.000 A 
ENDBRANCH   2   5
TORSDOF 2
ENDMDL
