REMARK SMILES COc1cc2c(c(OC)c1OC)-c1ccc(OC)c(=O)cc1[C@H](NC(C)=O)CC2
REMARK SMILES IDX 16 1 15 2 14 3 13 4 22 5 21 6 19 7 20 8 17 9 18 10 6 11 7 12
REMARK SMILES IDX 5 13 10 14 4 15 3 16 8 17 9 18 29 19 11 21 12 22 2 23 1 24
REMARK SMILES IDX 23 25 28 26 24 28 25 29 27 30 26 32
REMARK H PARENT 24 31
REMARK Flexibility Score:    8.900
ROOT
ATOM      1  C   UNL     1      -2.240   2.890   1.433  1.00  0.00    +0.166 A 
ATOM      2  C   UNL     1      -1.008   2.473   1.754  1.00  0.00    +0.051 A 
ATOM      3  C   UNL     1      -0.254   1.551   1.134  1.00  0.00    +0.013 A 
ATOM      4  C   UNL     1      -0.447   0.609   0.172  1.00  0.00    -0.009 A 
ATOM      5  C   UNL     1      -1.613   0.233  -0.435  1.00  0.00    -0.014 A 
ATOM      6  C   UNL     1      -2.718   1.017  -0.430  1.00  0.00    +0.062 A 
ATOM      7  C   UNL     1      -2.827   2.420   0.112  1.00  0.00    +0.220 A 
ATOM      8  O   UNL     1      -3.401   3.225  -0.600  1.00  0.00    -0.286 OA
ENDROOT
BRANCH   1   9
ATOM      9  O   UNL     1      -3.017   3.794   2.127  1.00  0.00    -0.493 OA
ATOM     10  C   UNL     1      -2.487   4.377   3.309  1.00  0.00    +0.278 C 
ENDBRANCH   1   9
BRANCH   4  11
ATOM     11  C   UNL     1       0.871  -0.068  -0.141  1.00  0.00    +0.031 A 
ATOM     12  C   UNL     1       1.975   0.695  -0.600  1.00  0.00    +0.172 A 
ATOM     13  C   UNL     1       1.083  -1.445   0.040  1.00  0.00    -0.032 A 
ATOM     14  C   UNL     1       3.258   0.135  -0.722  1.00  0.00    +0.203 A 
ATOM     15  C   UNL     1       2.372  -2.007  -0.109  1.00  0.00    +0.055 A 
ATOM     16  C   UNL     1       3.467  -1.225  -0.476  1.00  0.00    +0.164 A 
BRANCH  12  17
ATOM     17  O   UNL     1       1.819   2.042  -0.859  1.00  0.00    -0.492 OA
ATOM     18  C   UNL     1       1.578   2.242  -2.253  1.00  0.00    +0.278 C 
ENDBRANCH  12  17
BRANCH  13  19
ATOM     19  C   UNL     1      -0.091  -2.372   0.173  1.00  0.00    +0.039 CG0
ATOM     20  G   UNL     1      -0.839  -2.267  -1.151  1.00  0.00    +0.000 G0
ENDBRANCH  13  19
BRANCH  14  21
ATOM     21  O   UNL     1       4.302   0.922  -1.152  1.00  0.00    -0.490 OA
ATOM     22  C   UNL     1       4.960   1.506  -0.028  1.00  0.00    +0.278 C 
ENDBRANCH  14  21
BRANCH  16  23
ATOM     23  O   UNL     1       4.746  -1.685  -0.643  1.00  0.00    -0.493 OA
ATOM     24  C   UNL     1       4.975  -3.074  -0.455  1.00  0.00    +0.278 C 
ENDBRANCH  16  23
ENDBRANCH   4  11
BRANCH   5  25
ATOM     25  C   UNL     1      -1.861  -1.116  -1.187  1.00  0.00    +0.113 C 
BRANCH  25  26
ATOM     26  C   UNL     1      -0.839  -2.267  -1.151  1.00  0.00    +0.034 CG0
ATOM     27  G   UNL     1      -0.091  -2.372   0.173  1.00  0.00    +0.000 G0
ENDBRANCH  25  26
BRANCH  25  28
ATOM     28  N   UNL     1      -3.117  -1.673  -0.643  1.00  0.00    -0.350 N 
ATOM     29  C   UNL     1      -3.984  -2.414  -1.413  1.00  0.00    +0.217 C 
ATOM     30  O   UNL     1      -3.809  -2.640  -2.605  1.00  0.00    -0.275 OA
ATOM     31  H   UNL     1      -3.249  -1.645   0.359  1.00  0.00    +0.164 HD
ATOM     32  C   UNL     1      -5.181  -2.940  -0.667  1.00  0.00    +0.114 C 
ENDBRANCH  25  28
ENDBRANCH   5  25
TORSDOF 5
