REMARK SMILES Cc1cc(C)c(N)c(C)c1
REMARK SMILES IDX 1 1 2 2 10 3 8 4 6 5 4 6 3 7 5 8 9 9 7 10
REMARK H PARENT 7 11 7 12
ROOT
ATOM      1  C   UNL     1       2.951  -0.731   0.966  1.00  0.00    +0.044 C 
ATOM      2  C   UNL     1       1.571  -0.393   0.487  1.00  0.00    -0.050 A 
ATOM      3  C   UNL     1       0.580  -1.375   0.424  1.00  0.00    +0.009 A 
ATOM      4  C   UNL     1      -0.725  -1.065   0.005  1.00  0.00    -0.028 A 
ATOM      5  C   UNL     1      -1.065   0.270  -0.301  1.00  0.00    +0.037 A 
ATOM      6  C   UNL     1      -0.054   1.254  -0.291  1.00  0.00    -0.028 A 
ATOM      7  C   UNL     1       1.244   0.918   0.132  1.00  0.00    +0.009 A 
ATOM      8  C   UNL     1      -0.331   2.675  -0.704  1.00  0.00    +0.046 C 
ATOM      9  C   UNL     1      -1.736  -2.177  -0.085  1.00  0.00    +0.046 C 
ENDROOT
BRANCH   5  10
ATOM     10  N   UNL     1      -2.342   0.575  -0.813  1.00  0.00    -0.398 N 
ATOM     11  H   UNL     1      -3.070  -0.052  -0.489  1.00  0.00    +0.156 HD
ATOM     12  H   UNL     1      -2.607   1.546  -0.693  1.00  0.00    +0.156 HD
ENDBRANCH   5  10
TORSDOF 1
