MODEL 1
REMARK VINA RESULT:    -6.195      0.000      0.000
REMARK INTER + INTRA:          -6.376
REMARK INTER:                  -6.376
REMARK INTRA:                   0.000
REMARK UNBOUND:                 0.000
REMARK SMILES Cc1nc(S)c2cnn(C)c2n1
REMARK SMILES IDX 10 1 9 2 8 3 7 4 6 5 4 6 3 7 2 8 1 9 12 10 11 11 5 12
REMARK H PARENT 5 13
ROOT
ATOM      1  C   UNL     1     -25.123   8.755   6.649  1.00  0.00    +0.176 C 
ATOM      2  N   UNL     1     -26.536   8.804   6.931  1.00  0.00    -0.250 N 
ATOM      3  N   UNL     1     -27.121   7.771   7.584  1.00  0.00    -0.179 NA
ATOM      4  C   UNL     1     -28.401   8.150   7.670  1.00  0.00    +0.148 A 
ATOM      5  C   UNL     1     -28.641   9.407   7.081  1.00  0.00    +0.071 A 
ATOM      6  C   UNL     1     -29.693  10.285   6.866  1.00  0.00    +0.108 A 
ATOM      7  N   UNL     1     -29.476  11.453   6.223  1.00  0.00    -0.226 NA
ATOM      8  C   UNL     1     -28.223  11.730   5.799  1.00  0.00    +0.129 A 
ATOM      9  C   UNL     1     -28.020  13.049   5.116  1.00  0.00    +0.090 C 
ATOM     10  N   UNL     1     -27.131  10.957   5.964  1.00  0.00    -0.214 NA
ATOM     11  C   UNL     1     -27.406   9.810   6.608  1.00  0.00    +0.162 A 
ENDROOT
BRANCH   6  12
ATOM     12  S   UNL     1     -31.318   9.907   7.418  1.00  0.00    -0.123 SA
ATOM     13  H   UNL     1     -31.875  10.054   6.208  1.00  0.00    +0.110 HD
ENDBRANCH   6  12
TORSDOF 1
ENDMDL
MODEL 2
REMARK VINA RESULT:    -5.986      1.887      2.996
REMARK INTER + INTRA:          -6.161
REMARK INTER:                  -6.161
REMARK INTRA:                   0.000
REMARK UNBOUND:                 0.000
REMARK SMILES Cc1nc(S)c2cnn(C)c2n1
REMARK SMILES IDX 10 1 9 2 8 3 7 4 6 5 4 6 3 7 2 8 1 9 12 10 11 11 5 12
REMARK H PARENT 5 13
ROOT
ATOM      1  C   UNL     1     -25.442   7.348   7.072  1.00  0.00    +0.176 C 
ATOM      2  N   UNL     1     -25.906   8.644   6.644  1.00  0.00    -0.250 N 
ATOM      3  N   UNL     1     -25.013   9.551   6.181  1.00  0.00    -0.179 NA
ATOM      4  C   UNL     1     -25.777  10.608   5.883  1.00  0.00    +0.148 A 
ATOM      5  C   UNL     1     -27.143  10.389   6.150  1.00  0.00    +0.071 A 
ATOM      6  C   UNL     1     -28.354  11.057   6.057  1.00  0.00    +0.108 A 
ATOM      7  N   UNL     1     -29.494  10.445   6.443  1.00  0.00    -0.226 NA
ATOM      8  C   UNL     1     -29.416   9.183   6.921  1.00  0.00    +0.129 A 
ATOM      9  C   UNL     1     -30.707   8.530   7.311  1.00  0.00    +0.090 C 
ATOM     10  N   UNL     1     -28.298   8.439   7.044  1.00  0.00    -0.214 NA
ATOM     11  C   UNL     1     -27.197   9.099   6.646  1.00  0.00    +0.162 A 
ENDROOT
BRANCH   6  12
ATOM     12  S   UNL     1     -28.439  12.701   5.441  1.00  0.00    -0.123 SA
ATOM     13  H   UNL     1     -27.852  13.245   6.515  1.00  0.00    +0.110 HD
ENDBRANCH   6  12
TORSDOF 1
ENDMDL
MODEL 3
REMARK VINA RESULT:    -5.911      2.182      3.231
REMARK INTER + INTRA:          -6.084
REMARK INTER:                  -6.084
REMARK INTRA:                   0.000
REMARK UNBOUND:                 0.000
REMARK SMILES Cc1nc(S)c2cnn(C)c2n1
REMARK SMILES IDX 10 1 9 2 8 3 7 4 6 5 4 6 3 7 2 8 1 9 12 10 11 11 5 12
REMARK H PARENT 5 13
ROOT
ATOM      1  C   UNL     1     -31.663   9.503   7.345  1.00  0.00    +0.176 C 
ATOM      2  N   UNL     1     -30.256   9.209   7.231  1.00  0.00    -0.250 N 
ATOM      3  N   UNL     1     -29.788   8.016   7.671  1.00  0.00    -0.179 NA
ATOM      4  C   UNL     1     -28.477   8.088   7.413  1.00  0.00    +0.148 A 
ATOM      5  C   UNL     1     -28.103   9.309   6.816  1.00  0.00    +0.071 A 
ATOM      6  C   UNL     1     -26.965   9.943   6.341  1.00  0.00    +0.108 A 
ATOM      7  N   UNL     1     -27.054  11.183   5.815  1.00  0.00    -0.226 NA
ATOM      8  C   UNL     1     -28.266  11.779   5.775  1.00  0.00    +0.129 A 
ATOM      9  C   UNL     1     -28.325  13.144   5.158  1.00  0.00    +0.090 C 
ATOM     10  N   UNL     1     -29.433  11.253   6.197  1.00  0.00    -0.214 NA
ATOM     11  C   UNL     1     -29.284  10.019   6.710  1.00  0.00    +0.162 A 
ENDROOT
BRANCH   6  12
ATOM     12  S   UNL     1     -25.394   9.157   6.407  1.00  0.00    -0.123 SA
ATOM     13  H   UNL     1     -24.935   9.926   7.403  1.00  0.00    +0.110 HD
ENDBRANCH   6  12
TORSDOF 1
ENDMDL
MODEL 4
REMARK VINA RESULT:    -5.887      2.349      4.339
REMARK INTER + INTRA:          -6.059
REMARK INTER:                  -6.059
REMARK INTRA:                   0.000
REMARK UNBOUND:                 0.000
REMARK SMILES Cc1nc(S)c2cnn(C)c2n1
REMARK SMILES IDX 10 1 9 2 8 3 7 4 6 5 4 6 3 7 2 8 1 9 12 10 11 11 5 12
REMARK H PARENT 5 13
ROOT
ATOM      1  C   UNL     1     -28.893  12.601   5.495  1.00  0.00    +0.176 C 
ATOM      2  N   UNL     1     -27.777  11.710   5.695  1.00  0.00    -0.250 N 
ATOM      3  N   UNL     1     -26.537  12.101   5.314  1.00  0.00    -0.179 NA
ATOM      4  C   UNL     1     -25.772  11.054   5.641  1.00  0.00    +0.148 A 
ATOM      5  C   UNL     1     -26.505  10.001   6.225  1.00  0.00    +0.071 A 
ATOM      6  C   UNL     1     -26.294   8.734   6.745  1.00  0.00    +0.108 A 
ATOM      7  N   UNL     1     -27.334   8.022   7.231  1.00  0.00    -0.226 NA
ATOM      8  C   UNL     1     -28.566   8.575   7.188  1.00  0.00    +0.129 A 
ATOM      9  C   UNL     1     -29.688   7.764   7.764  1.00  0.00    +0.090 C 
ATOM     10  N   UNL     1     -28.882   9.797   6.716  1.00  0.00    -0.214 NA
ATOM     11  C   UNL     1     -27.810  10.458   6.246  1.00  0.00    +0.162 A 
ENDROOT
BRANCH   6  12
ATOM     12  S   UNL     1     -24.686   8.026   6.787  1.00  0.00    -0.123 SA
ATOM     13  H   UNL     1     -25.037   7.018   7.597  1.00  0.00    +0.110 HD
ENDBRANCH   6  12
TORSDOF 1
ENDMDL
MODEL 5
REMARK VINA RESULT:    -5.791      2.195      4.472
REMARK INTER + INTRA:          -5.960
REMARK INTER:                  -5.960
REMARK INTRA:                   0.000
REMARK UNBOUND:                 0.000
REMARK SMILES Cc1nc(S)c2cnn(C)c2n1
REMARK SMILES IDX 10 1 9 2 8 3 7 4 6 5 4 6 3 7 2 8 1 9 12 10 11 11 5 12
REMARK H PARENT 5 13
ROOT
ATOM      1  C   UNL     1     -31.987   9.631   7.715  1.00  0.00    +0.176 C 
ATOM      2  N   UNL     1     -30.831  10.262   7.130  1.00  0.00    -0.250 N 
ATOM      3  N   UNL     1     -30.948  11.500   6.594  1.00  0.00    -0.179 NA
ATOM      4  C   UNL     1     -29.711  11.763   6.157  1.00  0.00    +0.148 A 
ATOM      5  C   UNL     1     -28.807  10.711   6.406  1.00  0.00    +0.071 A 
ATOM      6  C   UNL     1     -27.470  10.403   6.208  1.00  0.00    +0.108 A 
ATOM      7  N   UNL     1     -26.982   9.215   6.626  1.00  0.00    -0.226 NA
ATOM      8  C   UNL     1     -27.828   8.349   7.227  1.00  0.00    +0.129 A 
ATOM      9  C   UNL     1     -27.240   7.054   7.701  1.00  0.00    +0.090 C 
ATOM     10  N   UNL     1     -29.137   8.549   7.479  1.00  0.00    -0.214 NA
ATOM     11  C   UNL     1     -29.566   9.746   7.042  1.00  0.00    +0.162 A 
ENDROOT
BRANCH   6  12
ATOM     12  S   UNL     1     -26.385  11.537   5.417  1.00  0.00    -0.123 SA
ATOM     13  H   UNL     1     -27.339  12.450   5.188  1.00  0.00    +0.110 HD
ENDBRANCH   6  12
TORSDOF 1
ENDMDL
MODEL 6
REMARK VINA RESULT:    -5.431      2.648      4.856
REMARK INTER + INTRA:          -5.590
REMARK INTER:                  -5.590
REMARK INTRA:                   0.000
REMARK UNBOUND:                 0.000
REMARK SMILES Cc1nc(S)c2cnn(C)c2n1
REMARK SMILES IDX 10 1 9 2 8 3 7 4 6 5 4 6 3 7 2 8 1 9 12 10 11 11 5 12
REMARK H PARENT 5 13
ROOT
ATOM      1  C   UNL     1     -31.051   7.169   8.206  1.00  0.00    +0.176 C 
ATOM      2  N   UNL     1     -29.978   7.981   7.689  1.00  0.00    -0.250 N 
ATOM      3  N   UNL     1     -30.263   9.179   7.122  1.00  0.00    -0.179 NA
ATOM      4  C   UNL     1     -29.060   9.642   6.766  1.00  0.00    +0.148 A 
ATOM      5  C   UNL     1     -28.013   8.759   7.095  1.00  0.00    +0.071 A 
ATOM      6  C   UNL     1     -26.633   8.679   6.994  1.00  0.00    +0.108 A 
ATOM      7  N   UNL     1     -25.983   7.592   7.466  1.00  0.00    -0.226 NA
ATOM      8  C   UNL     1     -26.712   6.601   8.024  1.00  0.00    +0.129 A 
ATOM      9  C   UNL     1     -25.950   5.427   8.562  1.00  0.00    +0.090 C 
ATOM     10  N   UNL     1     -28.051   6.580   8.184  1.00  0.00    -0.214 NA
ATOM     11  C   UNL     1     -28.642   7.684   7.696  1.00  0.00    +0.162 A 
ENDROOT
BRANCH   6  12
ATOM     12  S   UNL     1     -25.700   9.974   6.257  1.00  0.00    -0.123 SA
ATOM     13  H   UNL     1     -24.892  10.134   7.314  1.00  0.00    +0.110 HD
ENDBRANCH   6  12
TORSDOF 1
ENDMDL
MODEL 7
REMARK VINA RESULT:    -5.348      7.357      9.029
REMARK INTER + INTRA:          -5.504
REMARK INTER:                  -5.504
REMARK INTRA:                   0.000
REMARK UNBOUND:                 0.000
REMARK SMILES Cc1nc(S)c2cnn(C)c2n1
REMARK SMILES IDX 10 1 9 2 8 3 7 4 6 5 4 6 3 7 2 8 1 9 12 10 11 11 5 12
REMARK H PARENT 5 13
ROOT
ATOM      1  C   UNL     1     -22.597   1.332   9.529  1.00  0.00    +0.176 C 
ATOM      2  N   UNL     1     -23.891   1.179  10.146  1.00  0.00    -0.250 N 
ATOM      3  N   UNL     1     -24.142   0.083  10.902  1.00  0.00    -0.179 NA
ATOM      4  C   UNL     1     -25.404   0.271  11.304  1.00  0.00    +0.148 A 
ATOM      5  C   UNL     1     -25.961   1.470  10.816  1.00  0.00    +0.071 A 
ATOM      6  C   UNL     1     -27.150   2.180  10.879  1.00  0.00    +0.108 A 
ATOM      7  N   UNL     1     -27.269   3.357  10.226  1.00  0.00    -0.226 NA
ATOM      8  C   UNL     1     -26.211   3.806   9.515  1.00  0.00    +0.129 A 
ATOM      9  C   UNL     1     -26.375   5.129   8.830  1.00  0.00    +0.090 C 
ATOM     10  N   UNL     1     -25.011   3.205   9.395  1.00  0.00    -0.214 NA
ATOM     11  C   UNL     1     -24.951   2.040  10.064  1.00  0.00    +0.162 A 
ENDROOT
BRANCH   6  12
ATOM     12  S   UNL     1     -28.519   1.578  11.802  1.00  0.00    -0.123 SA
ATOM     13  H   UNL     1     -29.155   1.081  10.733  1.00  0.00    +0.110 HD
ENDBRANCH   6  12
TORSDOF 1
ENDMDL
MODEL 8
REMARK VINA RESULT:    -4.900      8.474     10.047
REMARK INTER + INTRA:          -5.044
REMARK INTER:                  -5.044
REMARK INTRA:                   0.000
REMARK UNBOUND:                 0.000
REMARK SMILES Cc1nc(S)c2cnn(C)c2n1
REMARK SMILES IDX 10 1 9 2 8 3 7 4 6 5 4 6 3 7 2 8 1 9 12 10 11 11 5 12
REMARK H PARENT 5 13
ROOT
ATOM      1  C   UNL     1     -27.360  -0.750  11.966  1.00  0.00    +0.176 C 
ATOM      2  N   UNL     1     -27.237   0.537  11.328  1.00  0.00    -0.250 N 
ATOM      3  N   UNL     1     -28.353   1.256  11.059  1.00  0.00    -0.179 NA
ATOM      4  C   UNL     1     -27.872   2.363  10.482  1.00  0.00    +0.148 A 
ATOM      5  C   UNL     1     -26.467   2.360  10.379  1.00  0.00    +0.071 A 
ATOM      6  C   UNL     1     -25.444   3.170   9.910  1.00  0.00    +0.108 A 
ATOM      7  N   UNL     1     -24.160   2.765  10.013  1.00  0.00    -0.226 NA
ATOM      8  C   UNL     1     -23.910   1.560  10.573  1.00  0.00    +0.129 A 
ATOM      9  C   UNL     1     -22.471   1.161  10.695  1.00  0.00    +0.090 C 
ATOM     10  N   UNL     1     -24.823   0.701  11.069  1.00  0.00    -0.214 NA
ATOM     11  C   UNL     1     -26.081   1.156  10.939  1.00  0.00    +0.162 A 
ENDROOT
BRANCH   6  12
ATOM     12  S   UNL     1     -25.787   4.731   9.178  1.00  0.00    -0.123 SA
ATOM     13  H   UNL     1     -26.820   4.282   8.453  1.00  0.00    +0.110 HD
ENDBRANCH   6  12
TORSDOF 1
ENDMDL
MODEL 9
REMARK VINA RESULT:    -4.823      8.861     10.530
REMARK INTER + INTRA:          -4.964
REMARK INTER:                  -4.964
REMARK INTRA:                   0.000
REMARK UNBOUND:                 0.000
REMARK SMILES Cc1nc(S)c2cnn(C)c2n1
REMARK SMILES IDX 10 1 9 2 8 3 7 4 6 5 4 6 3 7 2 8 1 9 12 10 11 11 5 12
REMARK H PARENT 5 13
ROOT
ATOM      1  C   UNL     1     -33.659   5.868   7.586  1.00  0.00    +0.176 C 
ATOM      2  N   UNL     1     -34.831   5.494   8.337  1.00  0.00    -0.250 N 
ATOM      3  N   UNL     1     -35.886   6.342   8.391  1.00  0.00    -0.179 NA
ATOM      4  C   UNL     1     -36.768   5.685   9.153  1.00  0.00    +0.148 A 
ATOM      5  C   UNL     1     -36.290   4.432   9.587  1.00  0.00    +0.071 A 
ATOM      6  C   UNL     1     -36.709   3.353  10.350  1.00  0.00    +0.108 A 
ATOM      7  N   UNL     1     -35.893   2.291  10.523  1.00  0.00    -0.226 NA
ATOM      8  C   UNL     1     -34.672   2.319   9.943  1.00  0.00    +0.129 A 
ATOM      9  C   UNL     1     -33.809   1.108  10.136  1.00  0.00    +0.090 C 
ATOM     10  N   UNL     1     -34.170   3.307   9.176  1.00  0.00    -0.214 NA
ATOM     11  C   UNL     1     -35.025   4.335   9.039  1.00  0.00    +0.162 A 
ENDROOT
BRANCH   6  12
ATOM     12  S   UNL     1     -38.297   3.336  11.103  1.00  0.00    -0.123 SA
ATOM     13  H   UNL     1     -38.888   4.022  10.115  1.00  0.00    +0.110 HD
ENDBRANCH   6  12
TORSDOF 1
ENDMDL
