MODEL 1
REMARK VINA RESULT:    -4.971      0.000      0.000
REMARK INTER + INTRA:          -4.971
REMARK INTER:                  -4.971
REMARK INTRA:                   0.000
REMARK UNBOUND:                 0.000
REMARK SMILES O=CN1CCCCC1
REMARK SMILES IDX 1 1 2 2 3 3 4 4 5 5 6 6 7 7 8 8
REMARK H PARENT
ROOT
ATOM      1  O   UNL     1     -28.071  14.174   5.004  1.00  0.00    -0.279 OA
ATOM      2  C   UNL     1     -27.684  13.021   5.143  1.00  0.00    +0.339 C 
ATOM      3  N   UNL     1     -28.396  11.998   5.731  1.00  0.00    -0.345 N 
ATOM      4  C   UNL     1     -27.818  10.672   5.902  1.00  0.00    +0.119 C 
ATOM      5  C   UNL     1     -28.345   9.994   7.159  1.00  0.00    +0.022 C 
ATOM      6  C   UNL     1     -29.872   9.887   7.161  1.00  0.00    +0.004 C 
ATOM      7  C   UNL     1     -30.557  10.969   6.322  1.00  0.00    +0.022 C 
ATOM      8  C   UNL     1     -29.735  12.248   6.252  1.00  0.00    +0.119 C 
ENDROOT
TORSDOF 0
ENDMDL
MODEL 2
REMARK VINA RESULT:    -4.802      2.815      3.877
REMARK INTER + INTRA:          -4.802
REMARK INTER:                  -4.802
REMARK INTRA:                   0.000
REMARK UNBOUND:                 0.000
REMARK SMILES O=CN1CCCCC1
REMARK SMILES IDX 1 1 2 2 3 3 4 4 5 5 6 6 7 7 8 8
REMARK H PARENT
ROOT
ATOM      1  O   UNL     1     -27.286   7.778   7.729  1.00  0.00    -0.279 OA
ATOM      2  C   UNL     1     -28.413   8.241   7.607  1.00  0.00    +0.339 C 
ATOM      3  N   UNL     1     -28.723   9.479   7.087  1.00  0.00    -0.345 N 
ATOM      4  C   UNL     1     -30.097   9.960   7.042  1.00  0.00    +0.119 C 
ATOM      5  C   UNL     1     -30.161  11.473   7.204  1.00  0.00    +0.022 C 
ATOM      6  C   UNL     1     -29.331  12.204   6.146  1.00  0.00    +0.004 C 
ATOM      7  C   UNL     1     -28.169  11.368   5.602  1.00  0.00    +0.022 C 
ATOM      8  C   UNL     1     -27.658  10.362   6.624  1.00  0.00    +0.119 C 
ENDROOT
TORSDOF 0
ENDMDL
MODEL 3
REMARK VINA RESULT:    -4.753      2.226      2.898
REMARK INTER + INTRA:          -4.753
REMARK INTER:                  -4.753
REMARK INTRA:                   0.000
REMARK UNBOUND:                 0.000
REMARK SMILES O=CN1CCCCC1
REMARK SMILES IDX 1 1 2 2 3 3 4 4 5 5 6 6 7 7 8 8
REMARK H PARENT
ROOT
ATOM      1  O   UNL     1     -26.239   9.014   4.714  1.00  0.00    -0.279 OA
ATOM      2  C   UNL     1     -26.571  10.188   4.815  1.00  0.00    +0.339 C 
ATOM      3  N   UNL     1     -27.614  10.667   5.578  1.00  0.00    -0.345 N 
ATOM      4  C   UNL     1     -27.966  12.080   5.581  1.00  0.00    +0.119 C 
ATOM      5  C   UNL     1     -29.462  12.280   5.780  1.00  0.00    +0.022 C 
ATOM      6  C   UNL     1     -29.966  11.628   7.069  1.00  0.00    +0.004 C 
ATOM      7  C   UNL     1     -29.111  10.443   7.525  1.00  0.00    +0.022 C 
ATOM      8  C   UNL     1     -28.431   9.742   6.356  1.00  0.00    +0.119 C 
ENDROOT
TORSDOF 0
ENDMDL
MODEL 4
REMARK VINA RESULT:    -4.593      2.876      3.671
REMARK INTER + INTRA:          -4.593
REMARK INTER:                  -4.593
REMARK INTRA:                   0.000
REMARK UNBOUND:                 0.000
REMARK SMILES O=CN1CCCCC1
REMARK SMILES IDX 1 1 2 2 3 3 4 4 5 5 6 6 7 7 8 8
REMARK H PARENT
ROOT
ATOM      1  O   UNL     1     -29.984   7.676   7.600  1.00  0.00    -0.279 OA
ATOM      2  C   UNL     1     -28.994   8.351   7.350  1.00  0.00    +0.339 C 
ATOM      3  N   UNL     1     -28.999   9.666   6.937  1.00  0.00    -0.345 N 
ATOM      4  C   UNL     1     -27.764  10.362   6.605  1.00  0.00    +0.119 C 
ATOM      5  C   UNL     1     -27.984  11.391   5.504  1.00  0.00    +0.022 C 
ATOM      6  C   UNL     1     -29.060  12.413   5.875  1.00  0.00    +0.004 C 
ATOM      7  C   UNL     1     -30.087  11.878   6.876  1.00  0.00    +0.022 C 
ATOM      8  C   UNL     1     -30.265  10.370   6.765  1.00  0.00    +0.119 C 
ENDROOT
TORSDOF 0
ENDMDL
MODEL 5
REMARK VINA RESULT:    -4.545      3.620      4.433
REMARK INTER + INTRA:          -4.545
REMARK INTER:                  -4.545
REMARK INTRA:                   0.000
REMARK UNBOUND:                 0.000
REMARK SMILES O=CN1CCCCC1
REMARK SMILES IDX 1 1 2 2 3 3 4 4 5 5 6 6 7 7 8 8
REMARK H PARENT
ROOT
ATOM      1  O   UNL     1     -25.014   7.009   7.035  1.00  0.00    -0.279 OA
ATOM      2  C   UNL     1     -24.889   8.174   6.681  1.00  0.00    +0.339 C 
ATOM      3  N   UNL     1     -25.908   9.095   6.563  1.00  0.00    -0.345 N 
ATOM      4  C   UNL     1     -25.660  10.443   6.073  1.00  0.00    +0.119 C 
ATOM      5  C   UNL     1     -26.858  10.984   5.303  1.00  0.00    +0.022 C 
ATOM      6  C   UNL     1     -28.136  10.975   6.143  1.00  0.00    +0.004 C 
ATOM      7  C   UNL     1     -28.133   9.912   7.244  1.00  0.00    +0.022 C 
ATOM      8  C   UNL     1     -27.279   8.706   6.875  1.00  0.00    +0.119 C 
ENDROOT
TORSDOF 0
ENDMDL
MODEL 6
REMARK VINA RESULT:    -4.495      4.331      5.285
REMARK INTER + INTRA:          -4.495
REMARK INTER:                  -4.495
REMARK INTRA:                   0.000
REMARK UNBOUND:                 0.000
REMARK SMILES O=CN1CCCCC1
REMARK SMILES IDX 1 1 2 2 3 3 4 4 5 5 6 6 7 7 8 8
REMARK H PARENT
ROOT
ATOM      1  O   UNL     1     -27.651   5.626   8.750  1.00  0.00    -0.279 OA
ATOM      2  C   UNL     1     -26.833   6.203   8.046  1.00  0.00    +0.339 C 
ATOM      3  N   UNL     1     -27.025   7.413   7.414  1.00  0.00    -0.345 N 
ATOM      4  C   UNL     1     -26.006   7.986   6.546  1.00  0.00    +0.119 C 
ATOM      5  C   UNL     1     -26.630   8.792   5.413  1.00  0.00    +0.022 C 
ATOM      6  C   UNL     1     -27.542   9.906   5.931  1.00  0.00    +0.004 C 
ATOM      7  C   UNL     1     -28.138   9.611   7.310  1.00  0.00    +0.022 C 
ATOM      8  C   UNL     1     -28.294   8.118   7.562  1.00  0.00    +0.119 C 
ENDROOT
TORSDOF 0
ENDMDL
MODEL 7
REMARK VINA RESULT:    -4.236      9.950     11.046
REMARK INTER + INTRA:          -4.236
REMARK INTER:                  -4.236
REMARK INTRA:                   0.000
REMARK UNBOUND:                 0.000
REMARK SMILES O=CN1CCCCC1
REMARK SMILES IDX 1 1 2 2 3 3 4 4 5 5 6 6 7 7 8 8
REMARK H PARENT
ROOT
ATOM      1  O   UNL     1     -35.244   6.718   7.809  1.00  0.00    -0.279 OA
ATOM      2  C   UNL     1     -35.357   5.549   8.155  1.00  0.00    +0.339 C 
ATOM      3  N   UNL     1     -36.422   5.014   8.848  1.00  0.00    -0.345 N 
ATOM      4  C   UNL     1     -36.431   3.619   9.267  1.00  0.00    +0.119 C 
ATOM      5  C   UNL     1     -37.187   3.437  10.576  1.00  0.00    +0.022 C 
ATOM      6  C   UNL     1     -38.625   3.952  10.490  1.00  0.00    +0.004 C 
ATOM      7  C   UNL     1     -38.814   5.054   9.444  1.00  0.00    +0.022 C 
ATOM      8  C   UNL     1     -37.544   5.865   9.229  1.00  0.00    +0.119 C 
ENDROOT
TORSDOF 0
ENDMDL
MODEL 8
REMARK VINA RESULT:    -4.206      8.062      9.183
REMARK INTER + INTRA:          -4.206
REMARK INTER:                  -4.206
REMARK INTRA:                   0.000
REMARK UNBOUND:                 0.000
REMARK SMILES O=CN1CCCCC1
REMARK SMILES IDX 1 1 2 2 3 3 4 4 5 5 6 6 7 7 8 8
REMARK H PARENT
ROOT
ATOM      1  O   UNL     1     -24.943   6.419   8.348  1.00  0.00    -0.279 OA
ATOM      2  C   UNL     1     -25.737   5.486   8.348  1.00  0.00    +0.339 C 
ATOM      3  N   UNL     1     -25.751   4.440   9.246  1.00  0.00    -0.345 N 
ATOM      4  C   UNL     1     -26.702   3.345   9.120  1.00  0.00    +0.119 C 
ATOM      5  C   UNL     1     -26.109   2.033   9.617  1.00  0.00    +0.022 C 
ATOM      6  C   UNL     1     -25.631   2.128  11.068  1.00  0.00    +0.004 C 
ATOM      7  C   UNL     1     -25.248   3.549  11.489  1.00  0.00    +0.022 C 
ATOM      8  C   UNL     1     -24.759   4.385  10.314  1.00  0.00    +0.119 C 
ENDROOT
TORSDOF 0
ENDMDL
MODEL 9
REMARK VINA RESULT:    -4.120     10.169     10.688
REMARK INTER + INTRA:          -4.120
REMARK INTER:                  -4.120
REMARK INTRA:                   0.000
REMARK UNBOUND:                 0.000
REMARK SMILES O=CN1CCCCC1
REMARK SMILES IDX 1 1 2 2 3 3 4 4 5 5 6 6 7 7 8 8
REMARK H PARENT
ROOT
ATOM      1  O   UNL     1     -34.531   2.653   7.802  1.00  0.00    -0.279 OA
ATOM      2  C   UNL     1     -35.053   3.760   7.835  1.00  0.00    +0.339 C 
ATOM      3  N   UNL     1     -35.366   4.470   8.975  1.00  0.00    -0.345 N 
ATOM      4  C   UNL     1     -36.045   5.756   8.905  1.00  0.00    +0.119 C 
ATOM      5  C   UNL     1     -36.951   5.972  10.110  1.00  0.00    +0.022 C 
ATOM      6  C   UNL     1     -36.188   5.870  11.433  1.00  0.00    +0.004 C 
ATOM      7  C   UNL     1     -34.937   4.992  11.346  1.00  0.00    +0.022 C 
ATOM      8  C   UNL     1     -35.070   3.906  10.287  1.00  0.00    +0.119 C 
ENDROOT
TORSDOF 0
ENDMDL
