REMARK SMILES OCCOc1ccc(Cl)cc1Cl
REMARK SMILES IDX 3 1 2 2 1 3 4 5 5 6 11 7 6 8 10 9 7 10 8 11 12 12 9 13
REMARK H PARENT 1 4
ROOT
ATOM      1  C   UNL     1      -1.739  -0.396  -0.270  1.00  0.00    +0.257 C 
ENDROOT
BRANCH   1   2
ATOM      2  C   UNL     1      -3.149   0.178  -0.373  1.00  0.00    +0.197 C 
BRANCH   2   3
ATOM      3  O   UNL     1      -4.116  -0.863  -0.441  1.00  0.00    -0.393 OA
ATOM      4  H   UNL     1      -4.205  -1.238   0.452  1.00  0.00    +0.210 HD
ENDBRANCH   2   3
ENDBRANCH   1   2
BRANCH   1   5
ATOM      5  O   UNL     1      -0.819   0.683  -0.133  1.00  0.00    -0.490 OA
BRANCH   5   6
ATOM      6  C   UNL     1       0.513   0.383  -0.019  1.00  0.00    +0.138 A 
ATOM      7  C   UNL     1       1.392   1.467   0.161  1.00  0.00    +0.084 A 
ATOM      8  C   UNL     1       1.043  -0.911  -0.073  1.00  0.00    +0.049 A 
ATOM      9  C   UNL     1       2.768   1.263   0.287  1.00  0.00    +0.045 A 
ATOM     10  C   UNL     1       2.421  -1.116   0.052  1.00  0.00    +0.024 A 
ATOM     11  C   UNL     1       3.275  -0.030   0.231  1.00  0.00    +0.042 A 
ATOM     12 Cl   UNL     1       0.806   3.093   0.239  1.00  0.00    -0.080 Cl
ATOM     13 Cl   UNL     1       4.968  -0.293   0.384  1.00  0.00    -0.084 Cl
ENDBRANCH   5   6
ENDBRANCH   1   5
TORSDOF 4
