MODEL 1
REMARK VINA RESULT:    -7.108      0.000      0.000
REMARK INTER + INTRA:          -9.768
REMARK INTER:                  -9.809
REMARK INTRA:                   0.041
REMARK UNBOUND:                 0.041
REMARK SMILES OCC(F)(F)C(F)(F)C(F)(F)C(F)(F)C(F)(F)C(F)F
REMARK SMILES IDX 6 1 7 2 8 3 3 4 4 5 5 6 2 7 1 8 9 10 10 11 11 12 12 13 13 14
REMARK SMILES IDX 14 15 15 16 16 17 17 18 18 19 19 20 20 21
REMARK H PARENT 1 9
ROOT
ATOM      1  C   UNL     1     -34.433   4.763   9.264  1.00  0.00    +0.380 C 
ATOM      2  F   UNL     1     -34.285   3.400   9.210  1.00  0.00    -0.192 F 
ATOM      3  F   UNL     1     -33.242   5.223   9.751  1.00  0.00    -0.192 F 
ENDROOT
BRANCH   1   4
ATOM      4  C   UNL     1     -34.631   5.287   7.854  1.00  0.00    +0.339 C 
ATOM      5  F   UNL     1     -35.900   5.750   7.682  1.00  0.00    -0.197 F 
ATOM      6  F   UNL     1     -34.457   4.296   6.944  1.00  0.00    -0.197 F 
BRANCH   4   7
ATOM      7  C   UNL     1     -33.677   6.442   7.543  1.00  0.00    +0.239 C 
BRANCH   7   8
ATOM      8  O   UNL     1     -34.322   7.719   7.656  1.00  0.00    -0.390 OA
ATOM      9  H   UNL     1     -35.019   7.640   8.336  1.00  0.00    +0.210 HD
ENDBRANCH   7   8
ENDBRANCH   4   7
ENDBRANCH   1   4
BRANCH   1  10
ATOM     10  C   UNL     1     -35.557   5.081  10.237  1.00  0.00    +0.384 C 
ATOM     11  F   UNL     1     -36.105   6.277   9.857  1.00  0.00    -0.192 F 
ATOM     12  F   UNL     1     -35.046   5.302  11.480  1.00  0.00    -0.192 F 
BRANCH  10  13
ATOM     13  C   UNL     1     -36.642   4.024  10.307  1.00  0.00    +0.384 C 
ATOM     14  F   UNL     1     -36.883   3.530   9.063  1.00  0.00    -0.192 F 
ATOM     15  F   UNL     1     -36.211   2.974  11.056  1.00  0.00    -0.192 F 
BRANCH  13  16
ATOM     16  C   UNL     1     -37.916   4.590  10.907  1.00  0.00    +0.375 C 
ATOM     17  F   UNL     1     -38.481   3.699  11.771  1.00  0.00    -0.193 F 
ATOM     18  F   UNL     1     -37.653   5.702  11.650  1.00  0.00    -0.193 F 
BRANCH  16  19
ATOM     19  C   UNL     1     -38.928   4.949   9.839  1.00  0.00    +0.418 C 
ATOM     20  F   UNL     1     -39.479   6.167  10.065  1.00  0.00    -0.203 F 
ATOM     21  F   UNL     1     -39.953   4.060   9.811  1.00  0.00    -0.203 F 
ENDBRANCH  16  19
ENDBRANCH  13  16
ENDBRANCH  10  13
ENDBRANCH   1  10
TORSDOF 7
ENDMDL
MODEL 2
REMARK VINA RESULT:    -7.069      2.152      3.062
REMARK INTER + INTRA:          -9.713
REMARK INTER:                  -9.316
REMARK INTRA:                  -0.397
REMARK UNBOUND:                 0.041
REMARK SMILES OCC(F)(F)C(F)(F)C(F)(F)C(F)(F)C(F)(F)C(F)F
REMARK SMILES IDX 6 1 7 2 8 3 3 4 4 5 5 6 2 7 1 8 9 10 10 11 11 12 12 13 13 14
REMARK SMILES IDX 14 15 15 16 16 17 17 18 18 19 19 20 20 21
REMARK H PARENT 1 9
ROOT
ATOM      1  C   UNL     1     -33.918   4.033   9.595  1.00  0.00    +0.380 C 
ATOM      2  F   UNL     1     -33.075   5.114   9.640  1.00  0.00    -0.192 F 
ATOM      3  F   UNL     1     -34.144   3.823   8.264  1.00  0.00    -0.192 F 
ENDROOT
BRANCH   1   4
ATOM      4  C   UNL     1     -33.198   2.830  10.175  1.00  0.00    +0.339 C 
ATOM      5  F   UNL     1     -33.817   1.673   9.815  1.00  0.00    -0.197 F 
ATOM      6  F   UNL     1     -33.214   2.869  11.531  1.00  0.00    -0.197 F 
BRANCH   4   7
ATOM      7  C   UNL     1     -31.751   2.748   9.682  1.00  0.00    +0.239 C 
BRANCH   7   8
ATOM      8  O   UNL     1     -31.342   1.395   9.438  1.00  0.00    -0.390 OA
ATOM      9  H   UNL     1     -30.449   1.421   9.044  1.00  0.00    +0.210 HD
ENDBRANCH   7   8
ENDBRANCH   4   7
ENDBRANCH   1   4
BRANCH   1  10
ATOM     10  C   UNL     1     -35.213   4.411  10.295  1.00  0.00    +0.384 C 
ATOM     11  F   UNL     1     -34.890   5.218  11.353  1.00  0.00    -0.192 F 
ATOM     12  F   UNL     1     -35.779   3.303  10.852  1.00  0.00    -0.192 F 
BRANCH  10  13
ATOM     13  C   UNL     1     -36.223   5.114   9.409  1.00  0.00    +0.384 C 
ATOM     14  F   UNL     1     -35.596   6.062   8.662  1.00  0.00    -0.192 F 
ATOM     15  F   UNL     1     -36.755   4.226   8.528  1.00  0.00    -0.192 F 
BRANCH  13  16
ATOM     16  C   UNL     1     -37.331   5.740  10.236  1.00  0.00    +0.375 C 
ATOM     17  F   UNL     1     -37.506   5.060  11.404  1.00  0.00    -0.193 F 
ATOM     18  F   UNL     1     -37.007   7.014  10.600  1.00  0.00    -0.193 F 
BRANCH  16  19
ATOM     19  C   UNL     1     -38.644   5.771   9.482  1.00  0.00    +0.418 C 
ATOM     20  F   UNL     1     -39.394   6.845   9.833  1.00  0.00    -0.203 F 
ATOM     21  F   UNL     1     -39.394   4.672   9.751  1.00  0.00    -0.203 F 
ENDBRANCH  16  19
ENDBRANCH  13  16
ENDBRANCH  10  13
ENDBRANCH   1  10
TORSDOF 7
ENDMDL
MODEL 3
REMARK VINA RESULT:    -7.042     18.160     19.502
REMARK INTER + INTRA:          -9.676
REMARK INTER:                  -9.364
REMARK INTRA:                  -0.312
REMARK UNBOUND:                 0.041
REMARK SMILES OCC(F)(F)C(F)(F)C(F)(F)C(F)(F)C(F)(F)C(F)F
REMARK SMILES IDX 6 1 7 2 8 3 3 4 4 5 5 6 2 7 1 8 9 10 10 11 11 12 12 13 13 14
REMARK SMILES IDX 14 15 15 16 16 17 17 18 18 19 19 20 20 21
REMARK H PARENT 1 9
ROOT
ATOM      1  C   UNL     1     -20.039  10.257  -0.309  1.00  0.00    +0.380 C 
ATOM      2  F   UNL     1     -18.892  10.378  -1.052  1.00  0.00    -0.192 F 
ATOM      3  F   UNL     1     -19.630  10.389   0.988  1.00  0.00    -0.192 F 
ENDROOT
BRANCH   1   4
ATOM      4  C   UNL     1     -20.968  11.405  -0.659  1.00  0.00    +0.339 C 
ATOM      5  F   UNL     1     -21.996  10.977  -1.443  1.00  0.00    -0.197 F 
ATOM      6  F   UNL     1     -20.311  12.354  -1.372  1.00  0.00    -0.197 F 
BRANCH   4   7
ATOM      7  C   UNL     1     -21.580  12.035   0.593  1.00  0.00    +0.239 C 
BRANCH   7   8
ATOM      8  O   UNL     1     -22.951  11.653   0.773  1.00  0.00    -0.390 OA
ATOM      9  H   UNL     1     -23.473  12.075   0.064  1.00  0.00    +0.210 HD
ENDBRANCH   7   8
ENDBRANCH   4   7
ENDBRANCH   1   4
BRANCH   1  10
ATOM     10  C   UNL     1     -20.612   8.868  -0.542  1.00  0.00    +0.384 C 
ATOM     11  F   UNL     1     -20.719   8.687  -1.895  1.00  0.00    -0.192 F 
ATOM     12  F   UNL     1     -21.890   8.810  -0.072  1.00  0.00    -0.192 F 
BRANCH  10  13
ATOM     13  C   UNL     1     -19.791   7.743   0.058  1.00  0.00    +0.384 C 
ATOM     14  F   UNL     1     -18.480   8.103   0.100  1.00  0.00    -0.192 F 
ATOM     15  F   UNL     1     -20.170   7.538   1.348  1.00  0.00    -0.192 F 
BRANCH  13  16
ATOM     16  C   UNL     1     -19.963   6.460  -0.735  1.00  0.00    +0.375 C 
ATOM     17  F   UNL     1     -21.229   6.364  -1.231  1.00  0.00    -0.193 F 
ATOM     18  F   UNL     1     -19.142   6.447  -1.824  1.00  0.00    -0.193 F 
BRANCH  16  19
ATOM     19  C   UNL     1     -19.669   5.236   0.108  1.00  0.00    +0.418 C 
ATOM     20  F   UNL     1     -18.418   5.280   0.629  1.00  0.00    -0.203 F 
ATOM     21  F   UNL     1     -19.741   4.100  -0.630  1.00  0.00    -0.203 F 
ENDBRANCH  16  19
ENDBRANCH  13  16
ENDBRANCH  10  13
ENDBRANCH   1  10
TORSDOF 7
ENDMDL
MODEL 4
REMARK VINA RESULT:    -6.933      2.249      3.155
REMARK INTER + INTRA:          -9.527
REMARK INTER:                  -9.258
REMARK INTRA:                  -0.269
REMARK UNBOUND:                 0.041
REMARK SMILES OCC(F)(F)C(F)(F)C(F)(F)C(F)(F)C(F)(F)C(F)F
REMARK SMILES IDX 6 1 7 2 8 3 3 4 4 5 5 6 2 7 1 8 9 10 10 11 11 12 12 13 13 14
REMARK SMILES IDX 14 15 15 16 16 17 17 18 18 19 19 20 20 21
REMARK H PARENT 1 9
ROOT
ATOM      1  C   UNL     1     -34.442   3.543  10.605  1.00  0.00    +0.380 C 
ATOM      2  F   UNL     1     -35.131   2.393  10.900  1.00  0.00    -0.192 F 
ATOM      3  F   UNL     1     -34.044   4.031  11.817  1.00  0.00    -0.192 F 
ENDROOT
BRANCH   1   4
ATOM      4  C   UNL     1     -33.217   3.180   9.786  1.00  0.00    +0.339 C 
ATOM      5  F   UNL     1     -32.323   4.206   9.768  1.00  0.00    -0.197 F 
ATOM      6  F   UNL     1     -33.557   2.944   8.494  1.00  0.00    -0.197 F 
BRANCH   4   7
ATOM      7  C   UNL     1     -32.499   1.956  10.359  1.00  0.00    +0.239 C 
BRANCH   7   8
ATOM      8  O   UNL     1     -32.583   0.824   9.484  1.00  0.00    -0.390 OA
ATOM      9  H   UNL     1     -33.510   0.744   9.189  1.00  0.00    +0.210 HD
ENDBRANCH   7   8
ENDBRANCH   4   7
ENDBRANCH   1   4
BRANCH   1  10
ATOM     10  C   UNL     1     -35.402   4.514   9.936  1.00  0.00    +0.384 C 
ATOM     11  F   UNL     1     -36.048   3.834   8.938  1.00  0.00    -0.192 F 
ATOM     12  F   UNL     1     -34.701   5.496   9.302  1.00  0.00    -0.192 F 
BRANCH  10  13
ATOM     13  C   UNL     1     -36.422   5.132  10.873  1.00  0.00    +0.384 C 
ATOM     14  F   UNL     1     -37.149   4.151  11.471  1.00  0.00    -0.192 F 
ATOM     15  F   UNL     1     -35.782   5.795  11.872  1.00  0.00    -0.192 F 
BRANCH  13  16
ATOM     16  C   UNL     1     -37.336   6.088  10.128  1.00  0.00    +0.375 C 
ATOM     17  F   UNL     1     -37.312   7.325  10.702  1.00  0.00    -0.193 F 
ATOM     18  F   UNL     1     -36.909   6.273   8.847  1.00  0.00    -0.193 F 
BRANCH  16  19
ATOM     19  C   UNL     1     -38.765   5.587  10.096  1.00  0.00    +0.418 C 
ATOM     20  F   UNL     1     -39.002   4.830   8.996  1.00  0.00    -0.203 F 
ATOM     21  F   UNL     1     -39.648   6.616  10.055  1.00  0.00    -0.203 F 
ENDBRANCH  16  19
ENDBRANCH  13  16
ENDBRANCH  10  13
ENDBRANCH   1  10
TORSDOF 7
ENDMDL
MODEL 5
REMARK VINA RESULT:    -6.861      1.968      5.063
REMARK INTER + INTRA:          -9.427
REMARK INTER:                  -9.058
REMARK INTRA:                  -0.369
REMARK UNBOUND:                 0.041
REMARK SMILES OCC(F)(F)C(F)(F)C(F)(F)C(F)(F)C(F)(F)C(F)F
REMARK SMILES IDX 6 1 7 2 8 3 3 4 4 5 5 6 2 7 1 8 9 10 10 11 11 12 12 13 13 14
REMARK SMILES IDX 14 15 15 16 16 17 17 18 18 19 19 20 20 21
REMARK H PARENT 1 9
ROOT
ATOM      1  C   UNL     1     -35.851   4.367   9.699  1.00  0.00    +0.380 C 
ATOM      2  F   UNL     1     -35.617   3.195  10.371  1.00  0.00    -0.192 F 
ATOM      3  F   UNL     1     -36.830   4.062   8.795  1.00  0.00    -0.192 F 
ENDROOT
BRANCH   1   4
ATOM      4  C   UNL     1     -36.382   5.394  10.682  1.00  0.00    +0.339 C 
ATOM      5  F   UNL     1     -36.406   6.635  10.123  1.00  0.00    -0.197 F 
ATOM      6  F   UNL     1     -35.576   5.478  11.770  1.00  0.00    -0.197 F 
BRANCH   4   7
ATOM      7  C   UNL     1     -37.809   5.065  11.125  1.00  0.00    +0.239 C 
BRANCH   7   8
ATOM      8  O   UNL     1     -38.753   6.045  10.672  1.00  0.00    -0.390 OA
ATOM      9  H   UNL     1     -38.273   6.681  10.108  1.00  0.00    +0.210 HD
ENDBRANCH   7   8
ENDBRANCH   4   7
ENDBRANCH   1   4
BRANCH   1  10
ATOM     10  C   UNL     1     -34.574   4.765   8.976  1.00  0.00    +0.384 C 
ATOM     11  F   UNL     1     -33.767   3.660   8.928  1.00  0.00    -0.192 F 
ATOM     12  F   UNL     1     -33.886   5.677   9.719  1.00  0.00    -0.192 F 
BRANCH  10  13
ATOM     13  C   UNL     1     -34.788   5.300   7.573  1.00  0.00    +0.384 C 
ATOM     14  F   UNL     1     -35.091   4.275   6.733  1.00  0.00    -0.192 F 
ATOM     15  F   UNL     1     -35.862   6.133   7.561  1.00  0.00    -0.192 F 
BRANCH  13  16
ATOM     16  C   UNL     1     -33.560   6.042   7.080  1.00  0.00    +0.375 C 
ATOM     17  F   UNL     1     -33.600   7.351   7.462  1.00  0.00    -0.193 F 
ATOM     18  F   UNL     1     -32.425   5.534   7.640  1.00  0.00    -0.193 F 
BRANCH  16  19
ATOM     19  C   UNL     1     -33.430   5.973   5.573  1.00  0.00    +0.418 C 
ATOM     20  F   UNL     1     -32.307   6.599   5.141  1.00  0.00    -0.203 F 
ATOM     21  F   UNL     1     -34.473   6.584   4.958  1.00  0.00    -0.203 F 
ENDBRANCH  16  19
ENDBRANCH  13  16
ENDBRANCH  10  13
ENDBRANCH   1  10
TORSDOF 7
ENDMDL
MODEL 6
REMARK VINA RESULT:    -6.824      8.037      9.946
REMARK INTER + INTRA:          -9.376
REMARK INTER:                  -9.288
REMARK INTRA:                  -0.088
REMARK UNBOUND:                 0.041
REMARK SMILES OCC(F)(F)C(F)(F)C(F)(F)C(F)(F)C(F)(F)C(F)F
REMARK SMILES IDX 6 1 7 2 8 3 3 4 4 5 5 6 2 7 1 8 9 10 10 11 11 12 12 13 13 14
REMARK SMILES IDX 14 15 15 16 16 17 17 18 18 19 19 20 20 21
REMARK H PARENT 1 9
ROOT
ATOM      1  C   UNL     1     -25.612   2.479  10.085  1.00  0.00    +0.380 C 
ATOM      2  F   UNL     1     -26.508   2.360   9.053  1.00  0.00    -0.192 F 
ATOM      3  F   UNL     1     -24.470   1.885   9.624  1.00  0.00    -0.192 F 
ENDROOT
BRANCH   1   4
ATOM      4  C   UNL     1     -25.344   3.952  10.330  1.00  0.00    +0.339 C 
ATOM      5  F   UNL     1     -24.038   4.162  10.649  1.00  0.00    -0.197 F 
ATOM      6  F   UNL     1     -26.074   4.404  11.380  1.00  0.00    -0.197 F 
BRANCH   4   7
ATOM      7  C   UNL     1     -25.653   4.794   9.090  1.00  0.00    +0.239 C 
BRANCH   7   8
ATOM      8  O   UNL     1     -26.889   5.510   9.220  1.00  0.00    -0.390 OA
ATOM      9  H   UNL     1     -27.204   5.724   8.321  1.00  0.00    +0.210 HD
ENDBRANCH   7   8
ENDBRANCH   4   7
ENDBRANCH   1   4
BRANCH   1  10
ATOM     10  C   UNL     1     -26.157   1.713  11.280  1.00  0.00    +0.384 C 
ATOM     11  F   UNL     1     -25.670   2.312  12.410  1.00  0.00    -0.192 F 
ATOM     12  F   UNL     1     -25.643   0.451  11.295  1.00  0.00    -0.192 F 
BRANCH  10  13
ATOM     13  C   UNL     1     -27.671   1.653  11.347  1.00  0.00    +0.384 C 
ATOM     14  F   UNL     1     -28.199   2.794  10.829  1.00  0.00    -0.192 F 
ATOM     15  F   UNL     1     -28.123   0.635  10.568  1.00  0.00    -0.192 F 
BRANCH  13  16
ATOM     16  C   UNL     1     -28.145   1.453  12.775  1.00  0.00    +0.375 C 
ATOM     17  F   UNL     1     -27.304   0.619  13.451  1.00  0.00    -0.193 F 
ATOM     18  F   UNL     1     -28.126   2.629  13.465  1.00  0.00    -0.193 F 
BRANCH  16  19
ATOM     19  C   UNL     1     -29.548   0.884  12.826  1.00  0.00    +0.418 C 
ATOM     20  F   UNL     1     -30.370   1.508  11.946  1.00  0.00    -0.203 F 
ATOM     21  F   UNL     1     -30.102   1.045  14.053  1.00  0.00    -0.203 F 
ENDBRANCH  16  19
ENDBRANCH  13  16
ENDBRANCH  10  13
ENDBRANCH   1  10
TORSDOF 7
ENDMDL
MODEL 7
REMARK VINA RESULT:    -6.781      1.884      4.994
REMARK INTER + INTRA:          -9.317
REMARK INTER:                  -9.191
REMARK INTRA:                  -0.126
REMARK UNBOUND:                 0.041
REMARK SMILES OCC(F)(F)C(F)(F)C(F)(F)C(F)(F)C(F)(F)C(F)F
REMARK SMILES IDX 6 1 7 2 8 3 3 4 4 5 5 6 2 7 1 8 9 10 10 11 11 12 12 13 13 14
REMARK SMILES IDX 14 15 15 16 16 17 17 18 18 19 19 20 20 21
REMARK H PARENT 1 9
ROOT
ATOM      1  C   UNL     1     -36.957   3.821   9.692  1.00  0.00    +0.380 C 
ATOM      2  F   UNL     1     -36.613   2.519   9.954  1.00  0.00    -0.192 F 
ATOM      3  F   UNL     1     -37.125   3.872   8.337  1.00  0.00    -0.192 F 
ENDROOT
BRANCH   1   4
ATOM      4  C   UNL     1     -38.280   4.122  10.371  1.00  0.00    +0.339 C 
ATOM      5  F   UNL     1     -38.082   4.698  11.588  1.00  0.00    -0.197 F 
ATOM      6  F   UNL     1     -38.974   2.978  10.596  1.00  0.00    -0.197 F 
BRANCH   4   7
ATOM      7  C   UNL     1     -39.132   5.085   9.542  1.00  0.00    +0.239 C 
BRANCH   7   8
ATOM      8  O   UNL     1     -39.578   6.209  10.313  1.00  0.00    -0.390 OA
ATOM      9  H   UNL     1     -39.079   6.210  11.152  1.00  0.00    +0.210 HD
ENDBRANCH   7   8
ENDBRANCH   4   7
ENDBRANCH   1   4
BRANCH   1  10
ATOM     10  C   UNL     1     -35.798   4.712  10.112  1.00  0.00    +0.384 C 
ATOM     11  F   UNL     1     -35.451   4.363  11.390  1.00  0.00    -0.192 F 
ATOM     12  F   UNL     1     -36.216   6.006  10.197  1.00  0.00    -0.192 F 
BRANCH  10  13
ATOM     13  C   UNL     1     -34.581   4.623   9.212  1.00  0.00    +0.384 C 
ATOM     14  F   UNL     1     -34.654   3.497   8.452  1.00  0.00    -0.192 F 
ATOM     15  F   UNL     1     -34.576   5.669   8.344  1.00  0.00    -0.192 F 
BRANCH  13  16
ATOM     16  C   UNL     1     -33.300   4.628  10.026  1.00  0.00    +0.375 C 
ATOM     17  F   UNL     1     -33.358   5.567  11.013  1.00  0.00    -0.193 F 
ATOM     18  F   UNL     1     -33.123   3.437  10.666  1.00  0.00    -0.193 F 
BRANCH  16  19
ATOM     19  C   UNL     1     -32.087   4.898   9.160  1.00  0.00    +0.418 C 
ATOM     20  F   UNL     1     -31.129   3.954   9.338  1.00  0.00    -0.203 F 
ATOM     21  F   UNL     1     -31.516   6.090   9.468  1.00  0.00    -0.203 F 
ENDBRANCH  16  19
ENDBRANCH  13  16
ENDBRANCH  10  13
ENDBRANCH   1  10
TORSDOF 7
ENDMDL
MODEL 8
REMARK VINA RESULT:    -6.752      8.332      9.701
REMARK INTER + INTRA:          -9.277
REMARK INTER:                  -9.182
REMARK INTRA:                  -0.095
REMARK UNBOUND:                 0.041
REMARK SMILES OCC(F)(F)C(F)(F)C(F)(F)C(F)(F)C(F)(F)C(F)F
REMARK SMILES IDX 6 1 7 2 8 3 3 4 4 5 5 6 2 7 1 8 9 10 10 11 11 12 12 13 13 14
REMARK SMILES IDX 14 15 15 16 16 17 17 18 18 19 19 20 20 21
REMARK H PARENT 1 9
ROOT
ATOM      1  C   UNL     1     -26.394   2.597  11.572  1.00  0.00    +0.380 C 
ATOM      2  F   UNL     1     -25.532   1.914  12.392  1.00  0.00    -0.192 F 
ATOM      3  F   UNL     1     -26.534   3.823  12.159  1.00  0.00    -0.192 F 
ENDROOT
BRANCH   1   4
ATOM      4  C   UNL     1     -25.741   2.766  10.212  1.00  0.00    +0.339 C 
ATOM      5  F   UNL     1     -25.073   3.949  10.137  1.00  0.00    -0.197 F 
ATOM      6  F   UNL     1     -26.678   2.790   9.231  1.00  0.00    -0.197 F 
BRANCH   4   7
ATOM      7  C   UNL     1     -24.732   1.651   9.930  1.00  0.00    +0.239 C 
BRANCH   7   8
ATOM      8  O   UNL     1     -25.132   0.829   8.826  1.00  0.00    -0.390 OA
ATOM      9  H   UNL     1     -25.387   1.420   8.092  1.00  0.00    +0.210 HD
ENDBRANCH   7   8
ENDBRANCH   4   7
ENDBRANCH   1   4
BRANCH   1  10
ATOM     10  C   UNL     1     -27.725   1.862  11.564  1.00  0.00    +0.384 C 
ATOM     11  F   UNL     1     -27.593   0.779  10.738  1.00  0.00    -0.192 F 
ATOM     12  F   UNL     1     -28.679   2.641  10.981  1.00  0.00    -0.192 F 
BRANCH  10  13
ATOM     13  C   UNL     1     -28.197   1.405  12.930  1.00  0.00    +0.384 C 
ATOM     14  F   UNL     1     -27.244   0.625  13.508  1.00  0.00    -0.192 F 
ATOM     15  F   UNL     1     -28.351   2.483  13.745  1.00  0.00    -0.192 F 
BRANCH  13  16
ATOM     16  C   UNL     1     -29.509   0.650  12.829  1.00  0.00    +0.375 C 
ATOM     17  F   UNL     1     -30.401   1.332  12.055  1.00  0.00    -0.193 F 
ATOM     18  F   UNL     1     -29.334  -0.552  12.209  1.00  0.00    -0.193 F 
BRANCH  16  19
ATOM     19  C   UNL     1     -30.124   0.408  14.192  1.00  0.00    +0.418 C 
ATOM     20  F   UNL     1     -30.668  -0.831  14.279  1.00  0.00    -0.203 F 
ATOM     21  F   UNL     1     -31.124   1.288  14.446  1.00  0.00    -0.203 F 
ENDBRANCH  16  19
ENDBRANCH  13  16
ENDBRANCH  10  13
ENDBRANCH   1  10
TORSDOF 7
ENDMDL
MODEL 9
REMARK VINA RESULT:    -6.718      2.327      4.857
REMARK INTER + INTRA:          -9.229
REMARK INTER:                  -8.887
REMARK INTRA:                  -0.343
REMARK UNBOUND:                 0.041
REMARK SMILES OCC(F)(F)C(F)(F)C(F)(F)C(F)(F)C(F)(F)C(F)F
REMARK SMILES IDX 6 1 7 2 8 3 3 4 4 5 5 6 2 7 1 8 9 10 10 11 11 12 12 13 13 14
REMARK SMILES IDX 14 15 15 16 16 17 17 18 18 19 19 20 20 21
REMARK H PARENT 1 9
ROOT
ATOM      1  C   UNL     1     -36.397   5.052   9.591  1.00  0.00    +0.380 C 
ATOM      2  F   UNL     1     -36.762   4.137   8.635  1.00  0.00    -0.192 F 
ATOM      3  F   UNL     1     -35.714   6.017   8.906  1.00  0.00    -0.192 F 
ENDROOT
BRANCH   1   4
ATOM      4  C   UNL     1     -37.652   5.658  10.190  1.00  0.00    +0.339 C 
ATOM      5  F   UNL     1     -37.472   6.979  10.462  1.00  0.00    -0.197 F 
ATOM      6  F   UNL     1     -37.957   5.060  11.369  1.00  0.00    -0.197 F 
BRANCH   4   7
ATOM      7  C   UNL     1     -38.842   5.545   9.235  1.00  0.00    +0.239 C 
BRANCH   7   8
ATOM      8  O   UNL     1     -39.653   4.397   9.518  1.00  0.00    -0.390 OA
ATOM      9  H   UNL     1     -40.578   4.699   9.601  1.00  0.00    +0.210 HD
ENDBRANCH   7   8
ENDBRANCH   4   7
ENDBRANCH   1   4
BRANCH   1  10
ATOM     10  C   UNL     1     -35.476   4.360  10.583  1.00  0.00    +0.384 C 
ATOM     11  F   UNL     1     -36.140   3.265  11.068  1.00  0.00    -0.192 F 
ATOM     12  F   UNL     1     -35.275   5.163  11.666  1.00  0.00    -0.192 F 
BRANCH  10  13
ATOM     13  C   UNL     1     -34.141   3.930  10.006  1.00  0.00    +0.384 C 
ATOM     14  F   UNL     1     -34.292   3.607   8.694  1.00  0.00    -0.192 F 
ATOM     15  F   UNL     1     -33.270   4.974  10.043  1.00  0.00    -0.192 F 
BRANCH  13  16
ATOM     16  C   UNL     1     -33.565   2.757  10.777  1.00  0.00    +0.375 C 
ATOM     17  F   UNL     1     -33.686   2.956  12.121  1.00  0.00    -0.193 F 
ATOM     18  F   UNL     1     -34.259   1.613  10.514  1.00  0.00    -0.193 F 
BRANCH  16  19
ATOM     19  C   UNL     1     -32.106   2.527  10.443  1.00  0.00    +0.418 C 
ATOM     20  F   UNL     1     -31.964   1.874   9.263  1.00  0.00    -0.203 F 
ATOM     21  F   UNL     1     -31.498   1.762  11.384  1.00  0.00    -0.203 F 
ENDBRANCH  16  19
ENDBRANCH  13  16
ENDBRANCH  10  13
ENDBRANCH   1  10
TORSDOF 7
ENDMDL
