REMARK SMILES C[C@H](O)C(=O)OCCOCCO
REMARK SMILES IDX 7 1 6 2 4 3 5 4 2 5 1 6 3 7 8 9 9 10 10 11 11 12 12 13
REMARK H PARENT 3 8 12 14
ROOT
ATOM      1  C   UNL     1      -0.137   0.938  -0.480  1.00  0.00    +0.261 C 
ENDROOT
BRANCH   1   2
ATOM      2  O   UNL     1      -1.291   0.507   0.258  1.00  0.00    -0.461 OA
BRANCH   2   3
ATOM      3  C   UNL     1      -1.982  -0.536  -0.291  1.00  0.00    +0.334 C 
ATOM      4  O   UNL     1      -1.689  -1.102  -1.335  1.00  0.00    -0.249 OA
BRANCH   3   5
ATOM      5  C   UNL     1      -3.211  -0.867   0.564  1.00  0.00    +0.220 C 
ATOM      6  C   UNL     1      -4.449  -0.240  -0.054  1.00  0.00    +0.051 C 
BRANCH   5   7
ATOM      7  O   UNL     1      -3.102  -0.437   1.919  1.00  0.00    -0.382 OA
ATOM      8  H   UNL     1      -2.780   0.484   1.893  1.00  0.00    +0.211 HD
ENDBRANCH   5   7
ENDBRANCH   3   5
ENDBRANCH   2   3
ENDBRANCH   1   2
BRANCH   1   9
ATOM      9  C   UNL     1       1.065   0.030  -0.225  1.00  0.00    +0.202 C 
BRANCH   9  10
ATOM     10  O   UNL     1       2.213   0.587  -0.866  1.00  0.00    -0.376 OA
BRANCH  10  11
ATOM     11  C   UNL     1       3.376  -0.246  -0.751  1.00  0.00    +0.188 C 
BRANCH  11  12
ATOM     12  C   UNL     1       4.077  -0.009   0.585  1.00  0.00    +0.184 C 
BRANCH  12  13
ATOM     13  O   UNL     1       4.416   1.370   0.718  1.00  0.00    -0.394 OA
ATOM     14  H   UNL     1       3.668   1.868   0.336  1.00  0.00    +0.210 HD
ENDBRANCH  12  13
ENDBRANCH  11  12
ENDBRANCH  10  11
ENDBRANCH   9  10
ENDBRANCH   1   9
TORSDOF 9
