REMARK SMILES CCCC[C@H](C)N=C=S
REMARK SMILES IDX 3 1 2 2 1 3 4 4 5 5 6 6 7 7 8 8 9 9
REMARK H PARENT
ROOT
ATOM      1  C   UNL     1      -0.859   0.696   0.419  1.00  0.00    +0.002 C 
ENDROOT
BRANCH   1   2
ATOM      2  C   UNL     1      -1.855  -0.188  -0.331  1.00  0.00    -0.003 C 
ATOM      3  C   UNL     1      -3.137   0.569  -0.648  1.00  0.00    +0.004 C 
ENDBRANCH   1   2
BRANCH   1   4
ATOM      4  C   UNL     1       0.399  -0.054   0.879  1.00  0.00    +0.028 C 
BRANCH   4   5
ATOM      5  C   UNL     1       1.258  -0.644  -0.253  1.00  0.00    +0.113 C 
ATOM      6  C   UNL     1       2.460  -1.417   0.296  1.00  0.00    +0.034 C 
BRANCH   5   7
ATOM      7  N   UNL     1       1.678   0.377  -1.241  1.00  0.00    -0.229 NA
ATOM      8  C   UNL     1       2.385   1.237  -0.866  1.00  0.00    +0.059 C 
ATOM      9  S   UNL     1       3.463   2.566  -0.313  1.00  0.00    -0.006 S 
ENDBRANCH   5   7
ENDBRANCH   4   5
ENDBRANCH   1   4
TORSDOF 4
