MODEL 1
REMARK VINA RESULT:    -7.274      0.000      0.000
REMARK INTER + INTRA:          -9.884
REMARK INTER:                  -9.401
REMARK INTRA:                  -0.484
REMARK UNBOUND:                -0.484
REMARK SMILES CC(C)NC[C@H](O)c1ccc(O)cc1
REMARK SMILES IDX 5 1 4 2 2 4 1 5 3 6 6 7 7 8 8 10 9 11 14 12 10 13 13 14
REMARK SMILES IDX 11 15 12 16
REMARK H PARENT 4 3 7 9 12 17
ROOT
ATOM      1  C   UNL     1     -31.129  10.186   7.672  1.00  0.00    +0.117 C 
ENDROOT
BRANCH   1   2
ATOM      2  N   UNL     1     -32.355   9.575   7.117  1.00  0.00    -0.312 NA
ATOM      3  H   UNL     1     -33.131   9.726   7.763  1.00  0.00    +0.123 HD
BRANCH   2   4
ATOM      4  C   UNL     1     -32.205   8.136   6.860  1.00  0.00    +0.047 C 
ATOM      5  C   UNL     1     -32.185   7.803   5.367  1.00  0.00    +0.024 C 
ATOM      6  C   UNL     1     -30.898   7.681   7.510  1.00  0.00    +0.024 C 
ENDBRANCH   2   4
ENDBRANCH   1   2
BRANCH   1   7
ATOM      7  C   UNL     1     -30.800  11.486   6.896  1.00  0.00    +0.158 C 
BRANCH   7   8
ATOM      8  O   UNL     1     -31.745  11.641   5.830  1.00  0.00    -0.387 OA
ATOM      9  H   UNL     1     -32.004  12.584   5.877  1.00  0.00    +0.211 HD
ENDBRANCH   7   8
BRANCH   7  10
ATOM     10  C   UNL     1     -29.387  11.474   6.356  1.00  0.00    -0.018 A 
ATOM     11  C   UNL     1     -28.893  12.590   5.660  1.00  0.00    +0.010 A 
ATOM     12  C   UNL     1     -28.533  10.381   6.568  1.00  0.00    +0.010 A 
ATOM     13  C   UNL     1     -27.579  12.608   5.182  1.00  0.00    +0.046 A 
ATOM     14  C   UNL     1     -27.222  10.399   6.092  1.00  0.00    +0.046 A 
ATOM     15  C   UNL     1     -26.755  11.510   5.403  1.00  0.00    +0.115 A 
BRANCH  15  16
ATOM     16  O   UNL     1     -25.467  11.487   4.955  1.00  0.00    -0.508 OA
ATOM     17  H   UNL     1     -25.456  11.789   4.032  1.00  0.00    +0.293 HD
ENDBRANCH  15  16
ENDBRANCH   7  10
ENDBRANCH   1   7
TORSDOF 6
ENDMDL
MODEL 2
REMARK VINA RESULT:    -6.871      3.257      4.089
REMARK INTER + INTRA:          -9.364
REMARK INTER:                  -9.129
REMARK INTRA:                  -0.235
REMARK UNBOUND:                -0.484
REMARK SMILES CC(C)NC[C@H](O)c1ccc(O)cc1
REMARK SMILES IDX 5 1 4 2 2 4 1 5 3 6 6 7 7 8 8 10 9 11 14 12 10 13 13 14
REMARK SMILES IDX 11 15 12 16
REMARK H PARENT 4 3 7 9 12 17
ROOT
ATOM      1  C   UNL     1     -27.710   7.733   7.435  1.00  0.00    +0.117 C 
ENDROOT
BRANCH   1   2
ATOM      2  N   UNL     1     -27.515   6.888   8.631  1.00  0.00    -0.312 NA
ATOM      3  H   UNL     1     -27.255   7.477   9.423  1.00  0.00    +0.123 HD
BRANCH   2   4
ATOM      4  C   UNL     1     -26.490   5.853   8.434  1.00  0.00    +0.047 C 
ATOM      5  C   UNL     1     -27.073   4.439   8.449  1.00  0.00    +0.024 C 
ATOM      6  C   UNL     1     -25.812   6.120   7.090  1.00  0.00    +0.024 C 
ENDBRANCH   2   4
ENDBRANCH   1   2
BRANCH   1   7
ATOM      7  C   UNL     1     -28.891   8.706   7.673  1.00  0.00    +0.158 C 
BRANCH   7   8
ATOM      8  O   UNL     1     -30.110   8.057   7.294  1.00  0.00    -0.387 OA
ATOM      9  H   UNL     1     -30.685   8.789   6.991  1.00  0.00    +0.211 HD
ENDBRANCH   7   8
BRANCH   7  10
ATOM     10  C   UNL     1     -28.716   9.998   6.906  1.00  0.00    -0.018 A 
ATOM     11  C   UNL     1     -27.542  10.222   6.168  1.00  0.00    +0.010 A 
ATOM     12  C   UNL     1     -29.724  10.974   6.879  1.00  0.00    +0.010 A 
ATOM     13  C   UNL     1     -27.377  11.397   5.428  1.00  0.00    +0.046 A 
ATOM     14  C   UNL     1     -29.561  12.146   6.140  1.00  0.00    +0.046 A 
ATOM     15  C   UNL     1     -28.391  12.349   5.421  1.00  0.00    +0.115 A 
BRANCH  15  16
ATOM     16  O   UNL     1     -28.272  13.508   4.712  1.00  0.00    -0.508 OA
ATOM     17  H   UNL     1     -29.019  13.571   4.095  1.00  0.00    +0.293 HD
ENDBRANCH  15  16
ENDBRANCH   7  10
ENDBRANCH   1   7
TORSDOF 6
ENDMDL
MODEL 3
REMARK VINA RESULT:    -6.733      1.879      2.840
REMARK INTER + INTRA:          -9.184
REMARK INTER:                  -9.030
REMARK INTRA:                  -0.154
REMARK UNBOUND:                -0.484
REMARK SMILES CC(C)NC[C@H](O)c1ccc(O)cc1
REMARK SMILES IDX 5 1 4 2 2 4 1 5 3 6 6 7 7 8 8 10 9 11 14 12 10 13 13 14
REMARK SMILES IDX 11 15 12 16
REMARK H PARENT 4 3 7 9 12 17
ROOT
ATOM      1  C   UNL     1     -32.400   8.306   6.804  1.00  0.00    +0.117 C 
ENDROOT
BRANCH   1   2
ATOM      2  N   UNL     1     -33.636   7.719   7.361  1.00  0.00    -0.312 NA
ATOM      3  H   UNL     1     -33.632   7.820   8.376  1.00  0.00    +0.123 HD
BRANCH   2   4
ATOM      4  C   UNL     1     -33.798   6.301   7.011  1.00  0.00    +0.047 C 
ATOM      5  C   UNL     1     -34.993   5.655   7.715  1.00  0.00    +0.024 C 
ATOM      6  C   UNL     1     -33.981   6.214   5.495  1.00  0.00    +0.024 C 
ENDBRANCH   2   4
ENDBRANCH   1   2
BRANCH   1   7
ATOM      7  C   UNL     1     -31.855   9.385   7.773  1.00  0.00    +0.158 C 
BRANCH   7   8
ATOM      8  O   UNL     1     -32.910  10.302   8.086  1.00  0.00    -0.387 OA
ATOM      9  H   UNL     1     -32.470  11.176   8.096  1.00  0.00    +0.211 HD
ENDBRANCH   7   8
BRANCH   7  10
ATOM     10  C   UNL     1     -30.670  10.119   7.186  1.00  0.00    -0.018 A 
ATOM     11  C   UNL     1     -29.452   9.444   6.993  1.00  0.00    +0.010 A 
ATOM     12  C   UNL     1     -30.766  11.461   6.789  1.00  0.00    +0.010 A 
ATOM     13  C   UNL     1     -28.357  10.099   6.423  1.00  0.00    +0.046 A 
ATOM     14  C   UNL     1     -29.673  12.115   6.219  1.00  0.00    +0.046 A 
ATOM     15  C   UNL     1     -28.478  11.431   6.040  1.00  0.00    +0.115 A 
BRANCH  15  16
ATOM     16  O   UNL     1     -27.435  12.106   5.480  1.00  0.00    -0.508 OA
ATOM     17  H   UNL     1     -26.895  12.488   6.192  1.00  0.00    +0.293 HD
ENDBRANCH  15  16
ENDBRANCH   7  10
ENDBRANCH   1   7
TORSDOF 6
ENDMDL
MODEL 4
REMARK VINA RESULT:    -6.117      5.084      7.274
REMARK INTER + INTRA:          -8.389
REMARK INTER:                  -8.073
REMARK INTRA:                  -0.315
REMARK UNBOUND:                -0.484
REMARK SMILES CC(C)NC[C@H](O)c1ccc(O)cc1
REMARK SMILES IDX 5 1 4 2 2 4 1 5 3 6 6 7 7 8 8 10 9 11 14 12 10 13 13 14
REMARK SMILES IDX 11 15 12 16
REMARK H PARENT 4 3 7 9 12 17
ROOT
ATOM      1  C   UNL     1     -35.674   5.130   8.974  1.00  0.00    +0.117 C 
ENDROOT
BRANCH   1   2
ATOM      2  N   UNL     1     -36.008   6.525   9.326  1.00  0.00    -0.312 NA
ATOM      3  H   UNL     1     -35.181   6.985   9.708  1.00  0.00    +0.123 HD
BRANCH   2   4
ATOM      4  C   UNL     1     -37.110   6.618  10.293  1.00  0.00    +0.047 C 
ATOM      5  C   UNL     1     -38.462   6.244   9.683  1.00  0.00    +0.024 C 
ATOM      6  C   UNL     1     -36.789   5.679  11.456  1.00  0.00    +0.024 C 
ENDBRANCH   2   4
ENDBRANCH   1   2
BRANCH   1   7
ATOM      7  C   UNL     1     -34.145   4.998   8.766  1.00  0.00    +0.158 C 
BRANCH   7   8
ATOM      8  O   UNL     1     -33.475   5.486   9.934  1.00  0.00    -0.387 OA
ATOM      9  H   UNL     1     -32.625   5.000   9.941  1.00  0.00    +0.211 HD
ENDBRANCH   7   8
BRANCH   7  10
ATOM     10  C   UNL     1     -33.680   5.745   7.536  1.00  0.00    -0.018 A 
ATOM     11  C   UNL     1     -34.344   5.563   6.311  1.00  0.00    +0.010 A 
ATOM     12  C   UNL     1     -32.615   6.657   7.594  1.00  0.00    +0.010 A 
ATOM     13  C   UNL     1     -33.947   6.269   5.171  1.00  0.00    +0.046 A 
ATOM     14  C   UNL     1     -32.219   7.364   6.458  1.00  0.00    +0.046 A 
ATOM     15  C   UNL     1     -32.886   7.165   5.257  1.00  0.00    +0.115 A 
BRANCH  15  16
ATOM     16  O   UNL     1     -32.468   7.875   4.170  1.00  0.00    -0.508 OA
ATOM     17  H   UNL     1     -32.973   7.580   3.395  1.00  0.00    +0.293 HD
ENDBRANCH  15  16
ENDBRANCH   7  10
ENDBRANCH   1   7
TORSDOF 6
ENDMDL
MODEL 5
REMARK VINA RESULT:    -6.060      8.687     10.210
REMARK INTER + INTRA:          -8.315
REMARK INTER:                  -8.127
REMARK INTRA:                  -0.189
REMARK UNBOUND:                -0.484
REMARK SMILES CC(C)NC[C@H](O)c1ccc(O)cc1
REMARK SMILES IDX 5 1 4 2 2 4 1 5 3 6 6 7 7 8 8 10 9 11 14 12 10 13 13 14
REMARK SMILES IDX 11 15 12 16
REMARK H PARENT 4 3 7 9 12 17
ROOT
ATOM      1  C   UNL     1     -26.510   3.884   9.161  1.00  0.00    +0.117 C 
ENDROOT
BRANCH   1   2
ATOM      2  N   UNL     1     -26.527   5.359   9.251  1.00  0.00    -0.312 NA
ATOM      3  H   UNL     1     -27.216   5.648   9.947  1.00  0.00    +0.123 HD
BRANCH   2   4
ATOM      4  C   UNL     1     -26.831   6.003   7.966  1.00  0.00    +0.047 C 
ATOM      5  C   UNL     1     -27.859   7.128   8.101  1.00  0.00    +0.024 C 
ATOM      6  C   UNL     1     -25.523   6.560   7.404  1.00  0.00    +0.024 C 
ENDBRANCH   2   4
ENDBRANCH   1   2
BRANCH   1   7
ATOM      7  C   UNL     1     -26.430   3.278  10.584  1.00  0.00    +0.158 C 
BRANCH   7   8
ATOM      8  O   UNL     1     -26.393   4.343  11.541  1.00  0.00    -0.387 OA
ATOM      9  H   UNL     1     -26.402   3.886  12.406  1.00  0.00    +0.211 HD
ENDBRANCH   7   8
BRANCH   7  10
ATOM     10  C   UNL     1     -25.223   2.380  10.743  1.00  0.00    -0.018 A 
ATOM     11  C   UNL     1     -23.939   2.941  10.842  1.00  0.00    +0.010 A 
ATOM     12  C   UNL     1     -25.356   0.986  10.835  1.00  0.00    +0.010 A 
ATOM     13  C   UNL     1     -22.816   2.128  11.020  1.00  0.00    +0.046 A 
ATOM     14  C   UNL     1     -24.237   0.173  11.014  1.00  0.00    +0.046 A 
ATOM     15  C   UNL     1     -22.976   0.749  11.106  1.00  0.00    +0.115 A 
BRANCH  15  16
ATOM     16  O   UNL     1     -21.908  -0.081  11.281  1.00  0.00    -0.508 OA
ATOM     17  H   UNL     1     -21.251   0.112  10.593  1.00  0.00    +0.293 HD
ENDBRANCH  15  16
ENDBRANCH   7  10
ENDBRANCH   1   7
TORSDOF 6
ENDMDL
MODEL 6
REMARK VINA RESULT:    -5.972      9.130     11.307
REMARK INTER + INTRA:          -8.202
REMARK INTER:                  -7.447
REMARK INTRA:                  -0.755
REMARK UNBOUND:                -0.484
REMARK SMILES CC(C)NC[C@H](O)c1ccc(O)cc1
REMARK SMILES IDX 5 1 4 2 2 4 1 5 3 6 6 7 7 8 8 10 9 11 14 12 10 13 13 14
REMARK SMILES IDX 11 15 12 16
REMARK H PARENT 4 3 7 9 12 17
ROOT
ATOM      1  C   UNL     1     -25.531   2.476   9.810  1.00  0.00    +0.117 C 
ENDROOT
BRANCH   1   2
ATOM      2  N   UNL     1     -25.811   1.287   8.978  1.00  0.00    -0.312 NA
ATOM      3  H   UNL     1     -26.809   1.248   8.767  1.00  0.00    +0.123 HD
BRANCH   2   4
ATOM      4  C   UNL     1     -25.398   0.033   9.623  1.00  0.00    +0.047 C 
ATOM      5  C   UNL     1     -24.730   0.262  10.980  1.00  0.00    +0.024 C 
ATOM      6  C   UNL     1     -26.646  -0.832   9.800  1.00  0.00    +0.024 C 
ENDBRANCH   2   4
ENDBRANCH   1   2
BRANCH   1   7
ATOM      7  C   UNL     1     -26.844   3.263  10.049  1.00  0.00    +0.158 C 
BRANCH   7   8
ATOM      8  O   UNL     1     -26.519   4.573  10.527  1.00  0.00    -0.387 OA
ATOM      9  H   UNL     1     -27.014   4.649  11.368  1.00  0.00    +0.211 HD
ENDBRANCH   7   8
BRANCH   7  10
ATOM     10  C   UNL     1     -27.754   2.551  11.026  1.00  0.00    -0.018 A 
ATOM     11  C   UNL     1     -28.941   1.953  10.571  1.00  0.00    +0.010 A 
ATOM     12  C   UNL     1     -27.421   2.438  12.384  1.00  0.00    +0.010 A 
ATOM     13  C   UNL     1     -29.778   1.265  11.455  1.00  0.00    +0.046 A 
ATOM     14  C   UNL     1     -28.255   1.751  13.267  1.00  0.00    +0.046 A 
ATOM     15  C   UNL     1     -29.426   1.170  12.797  1.00  0.00    +0.115 A 
BRANCH  15  16
ATOM     16  O   UNL     1     -30.212   0.508  13.693  1.00  0.00    -0.508 OA
ATOM     17  H   UNL     1     -30.985   0.154  13.223  1.00  0.00    +0.293 HD
ENDBRANCH  15  16
ENDBRANCH   7  10
ENDBRANCH   1   7
TORSDOF 6
ENDMDL
MODEL 7
REMARK VINA RESULT:    -5.859      3.477      7.083
REMARK INTER + INTRA:          -8.056
REMARK INTER:                  -7.832
REMARK INTRA:                  -0.224
REMARK UNBOUND:                -0.484
REMARK SMILES CC(C)NC[C@H](O)c1ccc(O)cc1
REMARK SMILES IDX 5 1 4 2 2 4 1 5 3 6 6 7 7 8 8 10 9 11 14 12 10 13 13 14
REMARK SMILES IDX 11 15 12 16
REMARK H PARENT 4 3 7 9 12 17
ROOT
ATOM      1  C   UNL     1     -31.090   8.020   7.293  1.00  0.00    +0.117 C 
ENDROOT
BRANCH   1   2
ATOM      2  N   UNL     1     -30.217   8.856   6.443  1.00  0.00    -0.312 NA
ATOM      3  H   UNL     1     -29.430   8.297   6.113  1.00  0.00    +0.123 HD
BRANCH   2   4
ATOM      4  C   UNL     1     -29.713  10.045   7.144  1.00  0.00    +0.047 C 
ATOM      5  C   UNL     1     -28.201  10.220   6.994  1.00  0.00    +0.024 C 
ATOM      6  C   UNL     1     -30.435  11.265   6.568  1.00  0.00    +0.024 C 
ENDBRANCH   2   4
ENDBRANCH   1   2
BRANCH   1   7
ATOM      7  C   UNL     1     -32.544   8.079   6.761  1.00  0.00    +0.158 C 
BRANCH   7   8
ATOM      8  O   UNL     1     -33.322   8.910   7.630  1.00  0.00    -0.387 OA
ATOM      9  H   UNL     1     -33.428   9.745   7.129  1.00  0.00    +0.211 HD
ENDBRANCH   7   8
BRANCH   7  10
ATOM     10  C   UNL     1     -33.158   6.701   6.654  1.00  0.00    -0.018 A 
ATOM     11  C   UNL     1     -33.523   6.003   7.818  1.00  0.00    +0.010 A 
ATOM     12  C   UNL     1     -33.411   6.108   5.407  1.00  0.00    +0.010 A 
ATOM     13  C   UNL     1     -34.120   4.742   7.736  1.00  0.00    +0.046 A 
ATOM     14  C   UNL     1     -34.008   4.850   5.325  1.00  0.00    +0.046 A 
ATOM     15  C   UNL     1     -34.358   4.176   6.487  1.00  0.00    +0.115 A 
BRANCH  15  16
ATOM     16  O   UNL     1     -34.939   2.949   6.362  1.00  0.00    -0.508 OA
ATOM     17  H   UNL     1     -34.239   2.276   6.346  1.00  0.00    +0.293 HD
ENDBRANCH  15  16
ENDBRANCH   7  10
ENDBRANCH   1   7
TORSDOF 6
ENDMDL
MODEL 8
REMARK VINA RESULT:    -5.804      5.903      8.649
REMARK INTER + INTRA:          -7.984
REMARK INTER:                  -7.446
REMARK INTRA:                  -0.538
REMARK UNBOUND:                -0.484
REMARK SMILES CC(C)NC[C@H](O)c1ccc(O)cc1
REMARK SMILES IDX 5 1 4 2 2 4 1 5 3 6 6 7 7 8 8 10 9 11 14 12 10 13 13 14
REMARK SMILES IDX 11 15 12 16
REMARK H PARENT 4 3 7 9 12 17
ROOT
ATOM      1  C   UNL     1     -34.742   6.079   7.207  1.00  0.00    +0.117 C 
ENDROOT
BRANCH   1   2
ATOM      2  N   UNL     1     -34.201   7.431   7.457  1.00  0.00    -0.312 NA
ATOM      3  H   UNL     1     -34.737   8.115   6.921  1.00  0.00    +0.123 HD
BRANCH   2   4
ATOM      4  C   UNL     1     -32.778   7.546   7.111  1.00  0.00    +0.047 C 
ATOM      5  C   UNL     1     -31.891   6.628   7.955  1.00  0.00    +0.024 C 
ATOM      6  C   UNL     1     -32.629   7.192   5.631  1.00  0.00    +0.024 C 
ENDBRANCH   2   4
ENDBRANCH   1   2
BRANCH   1   7
ATOM      7  C   UNL     1     -35.531   5.597   8.449  1.00  0.00    +0.158 C 
BRANCH   7   8
ATOM      8  O   UNL     1     -35.886   6.735   9.244  1.00  0.00    -0.387 OA
ATOM      9  H   UNL     1     -35.847   7.485   8.616  1.00  0.00    +0.211 HD
ENDBRANCH   7   8
BRANCH   7  10
ATOM     10  C   UNL     1     -34.734   4.605   9.269  1.00  0.00    -0.018 A 
ATOM     11  C   UNL     1     -34.042   3.563   8.630  1.00  0.00    +0.010 A 
ATOM     12  C   UNL     1     -34.635   4.723  10.663  1.00  0.00    +0.010 A 
ATOM     13  C   UNL     1     -33.276   2.656   9.369  1.00  0.00    +0.046 A 
ATOM     14  C   UNL     1     -33.869   3.820  11.402  1.00  0.00    +0.046 A 
ATOM     15  C   UNL     1     -33.197   2.794  10.750  1.00  0.00    +0.115 A 
BRANCH  15  16
ATOM     16  O   UNL     1     -32.460   1.934  11.509  1.00  0.00    -0.508 OA
ATOM     17  H   UNL     1     -33.063   1.436  12.085  1.00  0.00    +0.293 HD
ENDBRANCH  15  16
ENDBRANCH   7  10
ENDBRANCH   1   7
TORSDOF 6
ENDMDL
MODEL 9
REMARK VINA RESULT:    -5.778      5.247      7.608
REMARK INTER + INTRA:          -7.950
REMARK INTER:                  -7.430
REMARK INTRA:                  -0.521
REMARK UNBOUND:                -0.484
REMARK SMILES CC(C)NC[C@H](O)c1ccc(O)cc1
REMARK SMILES IDX 5 1 4 2 2 4 1 5 3 6 6 7 7 8 8 10 9 11 14 12 10 13 13 14
REMARK SMILES IDX 11 15 12 16
REMARK H PARENT 4 3 7 9 12 17
ROOT
ATOM      1  C   UNL     1     -35.039   3.694   8.823  1.00  0.00    +0.117 C 
ENDROOT
BRANCH   1   2
ATOM      2  N   UNL     1     -36.408   3.773   9.372  1.00  0.00    -0.312 NA
ATOM      3  H   UNL     1     -37.064   3.984   8.619  1.00  0.00    +0.123 HD
BRANCH   2   4
ATOM      4  C   UNL     1     -36.537   4.785  10.430  1.00  0.00    +0.047 C 
ATOM      5  C   UNL     1     -35.219   5.041  11.163  1.00  0.00    +0.024 C 
ATOM      6  C   UNL     1     -37.027   6.079   9.778  1.00  0.00    +0.024 C 
ENDBRANCH   2   4
ENDBRANCH   1   2
BRANCH   1   7
ATOM      7  C   UNL     1     -35.065   4.033   7.312  1.00  0.00    +0.158 C 
BRANCH   7   8
ATOM      8  O   UNL     1     -34.771   2.846   6.565  1.00  0.00    -0.387 OA
ATOM      9  H   UNL     1     -33.850   2.630   6.815  1.00  0.00    +0.211 HD
ENDBRANCH   7   8
BRANCH   7  10
ATOM     10  C   UNL     1     -34.086   5.134   6.967  1.00  0.00    -0.018 A 
ATOM     11  C   UNL     1     -33.281   5.696   7.972  1.00  0.00    +0.010 A 
ATOM     12  C   UNL     1     -33.931   5.587   5.648  1.00  0.00    +0.010 A 
ATOM     13  C   UNL     1     -32.349   6.692   7.666  1.00  0.00    +0.046 A 
ATOM     14  C   UNL     1     -33.000   6.579   5.341  1.00  0.00    +0.046 A 
ATOM     15  C   UNL     1     -32.217   7.125   6.350  1.00  0.00    +0.115 A 
BRANCH  15  16
ATOM     16  O   UNL     1     -31.320   8.093   6.008  1.00  0.00    -0.508 OA
ATOM     17  H   UNL     1     -30.471   7.892   6.434  1.00  0.00    +0.293 HD
ENDBRANCH  15  16
ENDBRANCH   7  10
ENDBRANCH   1   7
TORSDOF 6
ENDMDL
