REMARK SMILES CC(=O)CC(C)(C)NNC(N)=S
REMARK SMILES IDX 5 1 6 2 7 3 4 4 2 5 3 6 1 7 8 8 9 10 10 11 11 12 12 13
REMARK H PARENT 8 9 9 14 11 15 11 16
ROOT
ATOM      1  C   UNL     1      -0.152  -0.221   0.004  1.00  0.00    +0.038 C 
ATOM      2  C   UNL     1      -0.275  -1.584   0.711  1.00  0.00    +0.030 C 
ATOM      3  C   UNL     1       0.270  -0.397  -1.466  1.00  0.00    +0.030 C 
ENDROOT
BRANCH   1   4
ATOM      4  C   UNL     1      -1.475   0.577   0.112  1.00  0.00    +0.099 C 
BRANCH   4   5
ATOM      5  C   UNL     1      -2.720  -0.040  -0.510  1.00  0.00    +0.131 C 
ATOM      6  O   UNL     1      -2.722  -1.099  -1.132  1.00  0.00    -0.300 OA
ATOM      7  C   UNL     1      -3.996   0.745  -0.333  1.00  0.00    +0.087 C 
ENDBRANCH   4   5
ENDBRANCH   1   4
BRANCH   1   8
ATOM      8  N   UNL     1       0.850   0.618   0.726  1.00  0.00    -0.229 NA
ATOM      9  H   UNL     1       0.938   1.523   0.244  1.00  0.00    +0.148 HD
BRANCH   8  10
ATOM     10  N   UNL     1       2.144   0.044   0.769  1.00  0.00    -0.298 N 
ATOM     11  C   UNL     1       3.249   0.727   0.303  1.00  0.00    +0.178 C 
ATOM     12  N   UNL     1       4.419   0.073   0.548  1.00  0.00    -0.375 N 
ATOM     13  S   UNL     1       3.264   2.187  -0.497  1.00  0.00    -0.040 S 
ATOM     14  H   UNL     1       2.317  -0.629   1.512  1.00  0.00    +0.184 HD
ATOM     15  H   UNL     1       5.246   0.472   0.117  1.00  0.00    +0.159 HD
ATOM     16  H   UNL     1       4.410  -0.936   0.613  1.00  0.00    +0.159 HD
ENDBRANCH   8  10
ENDBRANCH   1   8
TORSDOF 4
