MODEL 1
REMARK VINA RESULT:    -7.062      0.000      0.000
REMARK INTER + INTRA:          -8.289
REMARK INTER:                  -8.094
REMARK INTRA:                  -0.195
REMARK UNBOUND:                -0.195
REMARK SMILES CC(=O)Nc1ccc(S(N)(=O)=O)cc1
REMARK SMILES IDX 5 1 6 2 7 3 8 4 13 5 14 6 4 7 2 8 3 9 1 10 9 12 11 13 12 14
REMARK SMILES IDX 10 15
REMARK H PARENT 4 11 10 16 10 17
ROOT
ATOM      1  C   UNL     1     -26.203   5.526   8.042  1.00  0.00    +0.041 A 
ATOM      2  C   UNL     1     -27.337   6.332   8.177  1.00  0.00    +0.027 A 
ATOM      3  C   UNL     1     -27.388   7.596   7.580  1.00  0.00    +0.024 A 
ATOM      4  C   UNL     1     -26.300   8.052   6.834  1.00  0.00    +0.082 A 
ATOM      5  C   UNL     1     -25.156   7.268   6.698  1.00  0.00    +0.024 A 
ATOM      6  C   UNL     1     -25.112   6.008   7.302  1.00  0.00    +0.027 A 
ENDROOT
BRANCH   1   7
ATOM      7  N   UNL     1     -26.074   4.245   8.616  1.00  0.00    -0.326 N 
ATOM      8  C   UNL     1     -25.281   3.879   9.690  1.00  0.00    +0.221 C 
ATOM      9  O   UNL     1     -24.576   4.618  10.369  1.00  0.00    -0.275 OA
ATOM     10  C   UNL     1     -25.387   2.409  10.005  1.00  0.00    +0.114 C 
ATOM     11  H   UNL     1     -26.641   3.515   8.204  1.00  0.00    +0.169 HD
ENDBRANCH   1   7
BRANCH   4  12
ATOM     12  S   UNL     1     -26.379   9.655   6.079  1.00  0.00    +0.238 S 
ATOM     13  O   UNL     1     -27.518  10.356   6.618  1.00  0.00    -0.207 OA
ATOM     14  O   UNL     1     -25.049  10.220   6.067  1.00  0.00    -0.207 OA
BRANCH  12  15
ATOM     15  N   UNL     1     -26.712   9.259   4.477  1.00  0.00    -0.225 NA
ATOM     16  H   UNL     1     -27.322   8.448   4.377  1.00  0.00    +0.137 HD
ATOM     17  H   UNL     1     -25.831   9.141   3.975  1.00  0.00    +0.137 HD
ENDBRANCH  12  15
ENDBRANCH   4  12
TORSDOF 3
ENDMDL
MODEL 2
REMARK VINA RESULT:    -7.024      1.388      2.078
REMARK INTER + INTRA:          -8.246
REMARK INTER:                  -8.275
REMARK INTRA:                   0.029
REMARK UNBOUND:                -0.195
REMARK SMILES CC(=O)Nc1ccc(S(N)(=O)=O)cc1
REMARK SMILES IDX 5 1 6 2 7 3 8 4 13 5 14 6 4 7 2 8 3 9 1 10 9 12 11 13 12 14
REMARK SMILES IDX 10 15
REMARK H PARENT 4 11 10 16 10 17
ROOT
ATOM      1  C   UNL     1     -26.921   6.431   8.060  1.00  0.00    +0.041 A 
ATOM      2  C   UNL     1     -25.826   6.626   7.213  1.00  0.00    +0.027 A 
ATOM      3  C   UNL     1     -25.770   7.738   6.366  1.00  0.00    +0.024 A 
ATOM      4  C   UNL     1     -26.813   8.665   6.374  1.00  0.00    +0.082 A 
ATOM      5  C   UNL     1     -27.919   8.480   7.202  1.00  0.00    +0.024 A 
ATOM      6  C   UNL     1     -27.968   7.364   8.042  1.00  0.00    +0.027 A 
ENDROOT
BRANCH   1   7
ATOM      7  N   UNL     1     -27.052   5.335   8.938  1.00  0.00    -0.326 N 
ATOM      8  C   UNL     1     -26.043   4.677   9.619  1.00  0.00    +0.221 C 
ATOM      9  O   UNL     1     -24.849   4.958   9.617  1.00  0.00    -0.275 OA
ATOM     10  C   UNL     1     -26.565   3.533  10.450  1.00  0.00    +0.114 C 
ATOM     11  H   UNL     1     -27.995   5.006   9.100  1.00  0.00    +0.169 HD
ENDBRANCH   1   7
BRANCH   4  12
ATOM     12  S   UNL     1     -26.729  10.071   5.297  1.00  0.00    +0.238 S 
ATOM     13  O   UNL     1     -26.548   9.600   3.946  1.00  0.00    -0.207 OA
ATOM     14  O   UNL     1     -27.777  10.995   5.668  1.00  0.00    -0.207 OA
BRANCH  12  15
ATOM     15  N   UNL     1     -25.295  10.797   5.799  1.00  0.00    -0.225 NA
ATOM     16  H   UNL     1     -24.825  11.322   5.062  1.00  0.00    +0.137 HD
ATOM     17  H   UNL     1     -24.690  10.085   6.210  1.00  0.00    +0.137 HD
ENDBRANCH  12  15
ENDBRANCH   4  12
TORSDOF 3
ENDMDL
MODEL 3
REMARK VINA RESULT:    -6.430      7.087      8.953
REMARK INTER + INTRA:          -7.564
REMARK INTER:                  -7.324
REMARK INTRA:                  -0.240
REMARK UNBOUND:                -0.195
REMARK SMILES CC(=O)Nc1ccc(S(N)(=O)=O)cc1
REMARK SMILES IDX 5 1 6 2 7 3 8 4 13 5 14 6 4 7 2 8 3 9 1 10 9 12 11 13 12 14
REMARK SMILES IDX 10 15
REMARK H PARENT 4 11 10 16 10 17
ROOT
ATOM      1  C   UNL     1     -32.108   7.248   7.254  1.00  0.00    +0.041 A 
ATOM      2  C   UNL     1     -31.936   6.406   8.356  1.00  0.00    +0.027 A 
ATOM      3  C   UNL     1     -32.739   5.272   8.518  1.00  0.00    +0.024 A 
ATOM      4  C   UNL     1     -33.712   4.973   7.564  1.00  0.00    +0.082 A 
ATOM      5  C   UNL     1     -33.906   5.807   6.464  1.00  0.00    +0.024 A 
ATOM      6  C   UNL     1     -33.103   6.941   6.314  1.00  0.00    +0.027 A 
ENDROOT
BRANCH   1   7
ATOM      7  N   UNL     1     -31.343   8.410   7.024  1.00  0.00    -0.326 N 
ATOM      8  C   UNL     1     -31.609   9.695   7.464  1.00  0.00    +0.221 C 
ATOM      9  O   UNL     1     -32.542  10.049   8.176  1.00  0.00    -0.275 OA
ATOM     10  C   UNL     1     -30.573  10.686   6.999  1.00  0.00    +0.114 C 
ATOM     11  H   UNL     1     -30.493   8.283   6.489  1.00  0.00    +0.169 HD
ENDBRANCH   1   7
BRANCH   4  12
ATOM     12  S   UNL     1     -34.721   3.530   7.779  1.00  0.00    +0.238 S 
ATOM     13  O   UNL     1     -33.975   2.563   8.546  1.00  0.00    -0.207 OA
ATOM     14  O   UNL     1     -36.054   3.954   8.143  1.00  0.00    -0.207 OA
BRANCH  12  15
ATOM     15  N   UNL     1     -34.847   2.966   6.198  1.00  0.00    -0.225 NA
ATOM     16  H   UNL     1     -35.018   3.704   5.516  1.00  0.00    +0.137 HD
ATOM     17  H   UNL     1     -35.560   2.236   6.162  1.00  0.00    +0.137 HD
ENDBRANCH  12  15
ENDBRANCH   4  12
TORSDOF 3
ENDMDL
MODEL 4
REMARK VINA RESULT:    -6.397      3.982      7.096
REMARK INTER + INTRA:          -7.527
REMARK INTER:                  -7.292
REMARK INTRA:                  -0.236
REMARK UNBOUND:                -0.195
REMARK SMILES CC(=O)Nc1ccc(S(N)(=O)=O)cc1
REMARK SMILES IDX 5 1 6 2 7 3 8 4 13 5 14 6 4 7 2 8 3 9 1 10 9 12 11 13 12 14
REMARK SMILES IDX 10 15
REMARK H PARENT 4 11 10 16 10 17
ROOT
ATOM      1  C   UNL     1     -26.312   4.194   9.457  1.00  0.00    +0.041 A 
ATOM      2  C   UNL     1     -26.755   2.905   9.146  1.00  0.00    +0.027 A 
ATOM      3  C   UNL     1     -25.963   1.790   9.440  1.00  0.00    +0.024 A 
ATOM      4  C   UNL     1     -24.725   1.965  10.060  1.00  0.00    +0.082 A 
ATOM      5  C   UNL     1     -24.262   3.244  10.367  1.00  0.00    +0.024 A 
ATOM      6  C   UNL     1     -25.058   4.353  10.065  1.00  0.00    +0.027 A 
ENDROOT
BRANCH   1   7
ATOM      7  N   UNL     1     -27.049   5.365   9.189  1.00  0.00    -0.326 N 
ATOM      8  C   UNL     1     -26.924   6.209   8.099  1.00  0.00    +0.221 C 
ATOM      9  O   UNL     1     -26.174   6.063   7.140  1.00  0.00    -0.275 OA
ATOM     10  C   UNL     1     -27.871   7.380   8.168  1.00  0.00    +0.114 C 
ATOM     11  H   UNL     1     -27.763   5.606   9.866  1.00  0.00    +0.169 HD
ENDBRANCH   1   7
BRANCH   4  12
ATOM     12  S   UNL     1     -23.733   0.543  10.430  1.00  0.00    +0.238 S 
ATOM     13  O   UNL     1     -23.093   0.754  11.705  1.00  0.00    -0.207 OA
ATOM     14  O   UNL     1     -24.503  -0.642  10.129  1.00  0.00    -0.207 OA
BRANCH  12  15
ATOM     15  N   UNL     1     -22.557   0.629   9.228  1.00  0.00    -0.225 NA
ATOM     16  H   UNL     1     -22.071  -0.253   9.072  1.00  0.00    +0.137 HD
ATOM     17  H   UNL     1     -21.913   1.390   9.449  1.00  0.00    +0.137 HD
ENDBRANCH  12  15
ENDBRANCH   4  12
TORSDOF 3
ENDMDL
MODEL 5
REMARK VINA RESULT:    -6.329      4.667      7.662
REMARK INTER + INTRA:          -7.449
REMARK INTER:                  -7.225
REMARK INTRA:                  -0.224
REMARK UNBOUND:                -0.195
REMARK SMILES CC(=O)Nc1ccc(S(N)(=O)=O)cc1
REMARK SMILES IDX 5 1 6 2 7 3 8 4 13 5 14 6 4 7 2 8 3 9 1 10 9 12 11 13 12 14
REMARK SMILES IDX 10 15
REMARK H PARENT 4 11 10 16 10 17
ROOT
ATOM      1  C   UNL     1     -26.459   3.792  10.052  1.00  0.00    +0.041 A 
ATOM      2  C   UNL     1     -27.540   2.951   9.772  1.00  0.00    +0.027 A 
ATOM      3  C   UNL     1     -28.135   2.193  10.786  1.00  0.00    +0.024 A 
ATOM      4  C   UNL     1     -27.650   2.285  12.091  1.00  0.00    +0.082 A 
ATOM      5  C   UNL     1     -26.565   3.109  12.387  1.00  0.00    +0.024 A 
ATOM      6  C   UNL     1     -25.974   3.859  11.366  1.00  0.00    +0.027 A 
ENDROOT
BRANCH   1   7
ATOM      7  N   UNL     1     -25.806   4.582   9.085  1.00  0.00    -0.326 N 
ATOM      8  C   UNL     1     -26.279   5.732   8.477  1.00  0.00    +0.221 C 
ATOM      9  O   UNL     1     -27.341   6.301   8.706  1.00  0.00    -0.275 OA
ATOM     10  C   UNL     1     -25.304   6.292   7.472  1.00  0.00    +0.114 C 
ATOM     11  H   UNL     1     -24.876   4.281   8.818  1.00  0.00    +0.169 HD
ENDBRANCH   1   7
BRANCH   4  12
ATOM     12  S   UNL     1     -28.414   1.321  13.368  1.00  0.00    +0.238 S 
ATOM     13  O   UNL     1     -28.495   2.128  14.561  1.00  0.00    -0.207 OA
ATOM     14  O   UNL     1     -29.559   0.642  12.806  1.00  0.00    -0.207 OA
BRANCH  12  15
ATOM     15  N   UNL     1     -27.261   0.121  13.622  1.00  0.00    -0.225 NA
ATOM     16  H   UNL     1     -26.963   0.042  14.593  1.00  0.00    +0.137 HD
ATOM     17  H   UNL     1     -26.475   0.278  12.989  1.00  0.00    +0.137 HD
ENDBRANCH  12  15
ENDBRANCH   4  12
TORSDOF 3
ENDMDL
MODEL 6
REMARK VINA RESULT:    -6.287      4.730      5.443
REMARK INTER + INTRA:          -7.401
REMARK INTER:                  -7.167
REMARK INTRA:                  -0.234
REMARK UNBOUND:                -0.195
REMARK SMILES CC(=O)Nc1ccc(S(N)(=O)=O)cc1
REMARK SMILES IDX 5 1 6 2 7 3 8 4 13 5 14 6 4 7 2 8 3 9 1 10 9 12 11 13 12 14
REMARK SMILES IDX 10 15
REMARK H PARENT 4 11 10 16 10 17
ROOT
ATOM      1  C   UNL     1     -29.664   9.106   6.881  1.00  0.00    +0.041 A 
ATOM      2  C   UNL     1     -29.930  10.473   6.758  1.00  0.00    +0.027 A 
ATOM      3  C   UNL     1     -28.968  11.341   6.229  1.00  0.00    +0.024 A 
ATOM      4  C   UNL     1     -27.737  10.835   5.812  1.00  0.00    +0.082 A 
ATOM      5  C   UNL     1     -27.449   9.477   5.938  1.00  0.00    +0.024 A 
ATOM      6  C   UNL     1     -28.415   8.618   6.472  1.00  0.00    +0.027 A 
ENDROOT
BRANCH   1   7
ATOM      7  N   UNL     1     -30.579   8.171   7.406  1.00  0.00    -0.326 N 
ATOM      8  C   UNL     1     -31.706   7.657   6.790  1.00  0.00    +0.221 C 
ATOM      9  O   UNL     1     -32.091   7.891   5.649  1.00  0.00    -0.275 OA
ATOM     10  C   UNL     1     -32.455   6.693   7.675  1.00  0.00    +0.114 C 
ATOM     11  H   UNL     1     -30.375   7.824   8.335  1.00  0.00    +0.169 HD
ENDBRANCH   1   7
BRANCH   4  12
ATOM     12  S   UNL     1     -26.528  11.946   5.141  1.00  0.00    +0.238 S 
ATOM     13  O   UNL     1     -25.478  12.118   6.115  1.00  0.00    -0.207 OA
ATOM     14  O   UNL     1     -26.267  11.565   3.772  1.00  0.00    -0.207 OA
BRANCH  12  15
ATOM     15  N   UNL     1     -27.402  13.381   5.048  1.00  0.00    -0.225 NA
ATOM     16  H   UNL     1     -27.270  13.881   4.169  1.00  0.00    +0.137 HD
ATOM     17  H   UNL     1     -27.176  13.960   5.858  1.00  0.00    +0.137 HD
ENDBRANCH  12  15
ENDBRANCH   4  12
TORSDOF 3
ENDMDL
MODEL 7
REMARK VINA RESULT:    -6.264      5.000      6.903
REMARK INTER + INTRA:          -7.375
REMARK INTER:                  -7.165
REMARK INTRA:                  -0.210
REMARK UNBOUND:                -0.195
REMARK SMILES CC(=O)Nc1ccc(S(N)(=O)=O)cc1
REMARK SMILES IDX 5 1 6 2 7 3 8 4 13 5 14 6 4 7 2 8 3 9 1 10 9 12 11 13 12 14
REMARK SMILES IDX 10 15
REMARK H PARENT 4 11 10 16 10 17
ROOT
ATOM      1  C   UNL     1     -28.900   9.877   6.638  1.00  0.00    +0.041 A 
ATOM      2  C   UNL     1     -28.902   8.528   7.004  1.00  0.00    +0.027 A 
ATOM      3  C   UNL     1     -30.106   7.830   7.144  1.00  0.00    +0.024 A 
ATOM      4  C   UNL     1     -31.315   8.484   6.905  1.00  0.00    +0.082 A 
ATOM      5  C   UNL     1     -31.333   9.832   6.550  1.00  0.00    +0.024 A 
ATOM      6  C   UNL     1     -30.125  10.523   6.418  1.00  0.00    +0.027 A 
ENDROOT
BRANCH   1   7
ATOM      7  N   UNL     1     -27.730  10.649   6.481  1.00  0.00    -0.326 N 
ATOM      8  C   UNL     1     -26.757  10.514   5.505  1.00  0.00    +0.221 C 
ATOM      9  O   UNL     1     -26.760   9.724   4.568  1.00  0.00    -0.275 OA
ATOM     10  C   UNL     1     -25.636  11.509   5.674  1.00  0.00    +0.114 C 
ATOM     11  H   UNL     1     -27.598  11.397   7.150  1.00  0.00    +0.169 HD
ENDBRANCH   1   7
BRANCH   4  12
ATOM     12  S   UNL     1     -32.834   7.587   7.083  1.00  0.00    +0.238 S 
ATOM     13  O   UNL     1     -33.317   7.243   5.768  1.00  0.00    -0.207 OA
ATOM     14  O   UNL     1     -32.667   6.609   8.134  1.00  0.00    -0.207 OA
BRANCH  12  15
ATOM     15  N   UNL     1     -33.850   8.765   7.726  1.00  0.00    -0.225 NA
ATOM     16  H   UNL     1     -34.337   8.466   8.570  1.00  0.00    +0.137 HD
ATOM     17  H   UNL     1     -34.496   9.078   7.000  1.00  0.00    +0.137 HD
ENDBRANCH  12  15
ENDBRANCH   4  12
TORSDOF 3
ENDMDL
MODEL 8
REMARK VINA RESULT:    -6.197      6.333      7.999
REMARK INTER + INTRA:          -7.298
REMARK INTER:                  -7.065
REMARK INTRA:                  -0.233
REMARK UNBOUND:                -0.195
REMARK SMILES CC(=O)Nc1ccc(S(N)(=O)=O)cc1
REMARK SMILES IDX 5 1 6 2 7 3 8 4 13 5 14 6 4 7 2 8 3 9 1 10 9 12 11 13 12 14
REMARK SMILES IDX 10 15
REMARK H PARENT 4 11 10 16 10 17
ROOT
ATOM      1  C   UNL     1     -28.121   0.625  13.206  1.00  0.00    +0.041 A 
ATOM      2  C   UNL     1     -27.994   2.000  12.991  1.00  0.00    +0.027 A 
ATOM      3  C   UNL     1     -27.199   2.488  11.948  1.00  0.00    +0.024 A 
ATOM      4  C   UNL     1     -26.537   1.592  11.108  1.00  0.00    +0.082 A 
ATOM      5  C   UNL     1     -26.643   0.217  11.314  1.00  0.00    +0.024 A 
ATOM      6  C   UNL     1     -27.435  -0.260  12.362  1.00  0.00    +0.027 A 
ENDROOT
BRANCH   1   7
ATOM      7  N   UNL     1     -28.898   0.058  14.237  1.00  0.00    -0.326 N 
ATOM      8  C   UNL     1     -28.456  -0.429  15.455  1.00  0.00    +0.221 C 
ATOM      9  O   UNL     1     -27.306  -0.413  15.879  1.00  0.00    -0.275 OA
ATOM     10  C   UNL     1     -29.581  -0.983  16.293  1.00  0.00    +0.114 C 
ATOM     11  H   UNL     1     -29.896   0.019  14.071  1.00  0.00    +0.169 HD
ENDBRANCH   1   7
BRANCH   4  12
ATOM     12  S   UNL     1     -25.536   2.222   9.787  1.00  0.00    +0.238 S 
ATOM     13  O   UNL     1     -26.371   3.016   8.921  1.00  0.00    -0.207 OA
ATOM     14  O   UNL     1     -24.299   2.718  10.348  1.00  0.00    -0.207 OA
BRANCH  12  15
ATOM     15  N   UNL     1     -25.122   0.809   8.972  1.00  0.00    -0.225 NA
ATOM     16  H   UNL     1     -24.401   0.944   8.264  1.00  0.00    +0.137 HD
ATOM     17  H   UNL     1     -25.969   0.391   8.583  1.00  0.00    +0.137 HD
ENDBRANCH  12  15
ENDBRANCH   4  12
TORSDOF 3
ENDMDL
MODEL 9
REMARK VINA RESULT:    -6.042      9.539     10.421
REMARK INTER + INTRA:          -7.120
REMARK INTER:                  -6.883
REMARK INTRA:                  -0.237
REMARK UNBOUND:                -0.195
REMARK SMILES CC(=O)Nc1ccc(S(N)(=O)=O)cc1
REMARK SMILES IDX 5 1 6 2 7 3 8 4 13 5 14 6 4 7 2 8 3 9 1 10 9 12 11 13 12 14
REMARK SMILES IDX 10 15
REMARK H PARENT 4 11 10 16 10 17
ROOT
ATOM      1  C   UNL     1     -34.115   2.905  11.206  1.00  0.00    +0.041 A 
ATOM      2  C   UNL     1     -35.280   2.308  10.717  1.00  0.00    +0.027 A 
ATOM      3  C   UNL     1     -36.386   3.089  10.363  1.00  0.00    +0.024 A 
ATOM      4  C   UNL     1     -36.320   4.477  10.490  1.00  0.00    +0.082 A 
ATOM      5  C   UNL     1     -35.170   5.089  10.988  1.00  0.00    +0.024 A 
ATOM      6  C   UNL     1     -34.072   4.300  11.343  1.00  0.00    +0.027 A 
ENDROOT
BRANCH   1   7
ATOM      7  N   UNL     1     -32.963   2.187  11.587  1.00  0.00    -0.326 N 
ATOM      8  C   UNL     1     -32.014   1.615  10.756  1.00  0.00    +0.221 C 
ATOM      9  O   UNL     1     -31.980   1.669   9.532  1.00  0.00    -0.275 OA
ATOM     10  C   UNL     1     -30.931   0.905  11.528  1.00  0.00    +0.114 C 
ATOM     11  H   UNL     1     -32.805   2.095  12.582  1.00  0.00    +0.169 HD
ENDBRANCH   1   7
BRANCH   4  12
ATOM     12  S   UNL     1     -37.727   5.455  10.036  1.00  0.00    +0.238 S 
ATOM     13  O   UNL     1     -38.488   5.739  11.228  1.00  0.00    -0.207 OA
ATOM     14  O   UNL     1     -37.291   6.488   9.124  1.00  0.00    -0.207 OA
BRANCH  12  15
ATOM     15  N   UNL     1     -38.605   4.369   9.096  1.00  0.00    -0.225 NA
ATOM     16  H   UNL     1     -38.019   3.736   8.552  1.00  0.00    +0.137 HD
ATOM     17  H   UNL     1     -39.256   4.892   8.507  1.00  0.00    +0.137 HD
ENDBRANCH  12  15
ENDBRANCH   4  12
TORSDOF 3
ENDMDL
