REMARK SMILES S=C(Nc1ccccc1)Nc1ccccc1
REMARK SMILES IDX 1 1 2 2 3 3 10 4 4 7 5 8 9 9 6 10 8 11 7 12 11 13 12 14
REMARK SMILES IDX 16 15 13 16 15 17 14 18
REMARK H PARENT 3 5 10 6
ROOT
ATOM      1  S   UNL     1       0.029  -0.321   2.208  1.00  0.00    -0.040 S 
ATOM      2  C   UNL     1       0.006  -0.064   0.556  1.00  0.00    +0.175 C 
ATOM      3  N   UNL     1      -1.074   0.421  -0.190  1.00  0.00    -0.332 N 
ATOM      4  N   UNL     1       1.063  -0.295  -0.332  1.00  0.00    -0.332 N 
ATOM      5  H   UNL     1      -0.778   0.967  -0.990  1.00  0.00    +0.169 HD
ATOM      6  H   UNL     1       0.743  -0.576  -1.251  1.00  0.00    +0.169 HD
ENDROOT
BRANCH   3   7
ATOM      7  C   UNL     1      -2.450   0.518   0.112  1.00  0.00    +0.040 A 
ATOM      8  C   UNL     1      -3.111  -0.290   1.037  1.00  0.00    +0.026 A 
ATOM      9  C   UNL     1      -3.201   1.441  -0.631  1.00  0.00    +0.026 A 
ATOM     10  C   UNL     1      -4.487  -0.150   1.250  1.00  0.00    +0.002 A 
ATOM     11  C   UNL     1      -4.575   1.583  -0.419  1.00  0.00    +0.002 A 
ATOM     12  C   UNL     1      -5.218   0.790   0.527  1.00  0.00    +0.000 A 
ENDBRANCH   3   7
BRANCH   4  13
ATOM     13  C   UNL     1       2.446  -0.474  -0.112  1.00  0.00    +0.040 A 
ATOM     14  C   UNL     1       3.136   0.019   0.996  1.00  0.00    +0.026 A 
ATOM     15  C   UNL     1       3.172  -1.125  -1.120  1.00  0.00    +0.026 A 
ATOM     16  C   UNL     1       4.517  -0.174   1.118  1.00  0.00    +0.002 A 
ATOM     17  C   UNL     1       4.551  -1.318  -0.999  1.00  0.00    +0.002 A 
ATOM     18  C   UNL     1       5.223  -0.847   0.124  1.00  0.00    +0.000 A 
ENDBRANCH   4  13
TORSDOF 2
