REMARK SMILES Cc1cccc([N+](=O)[O-])c1N
REMARK SMILES IDX 1 1 2 2 3 3 4 4 5 5 6 6 10 7 11 8 7 11 8 12 9 13
REMARK H PARENT 11 9 11 10
ROOT
ATOM      1  C   UNL     1       1.922   0.351   1.529  1.00  0.00    +0.047 C 
ATOM      2  C   UNL     1       0.782  -0.197   0.709  1.00  0.00    -0.021 A 
ATOM      3  C   UNL     1       0.526  -1.581   0.759  1.00  0.00    +0.006 A 
ATOM      4  C   UNL     1      -0.485  -2.156  -0.007  1.00  0.00    +0.008 A 
ATOM      5  C   UNL     1      -1.250  -1.357  -0.847  1.00  0.00    +0.088 A 
ATOM      6  C   UNL     1      -1.008   0.026  -0.900  1.00  0.00    +0.292 A 
ATOM      7  C   UNL     1      -0.025   0.644  -0.093  1.00  0.00    +0.113 A 
ENDROOT
BRANCH   7   8
ATOM      8  N   UNL     1       0.326   2.003  -0.233  1.00  0.00    -0.393 N 
ATOM      9  H   UNL     1       0.760   2.415   0.586  1.00  0.00    +0.156 HD
ATOM     10  H   UNL     1      -0.445   2.588  -0.570  1.00  0.00    +0.156 HD
ENDBRANCH   7   8
BRANCH   6  11
ATOM     11  N   UNL     1      -1.841   0.818  -1.807  1.00  0.00    +0.064 N 
ATOM     12  O   UNL     1      -2.248   0.267  -2.841  1.00  0.00    -0.258 OA
ATOM     13  O   UNL     1      -2.111   1.985  -1.479  1.00  0.00    -0.258 OA
ENDBRANCH   6  11
TORSDOF 2
