REMARK SMILES CN(N=O)c1ccccc1
REMARK SMILES IDX 1 1 2 2 3 3 4 4 5 5 6 6 10 7 7 8 9 9 8 10
REMARK H PARENT
ROOT
ATOM      1  C   UNL     1       2.365  -0.891  -0.323  1.00  0.00    +0.178 C 
ATOM      2  N   UNL     1       1.639   0.343  -0.005  1.00  0.00    -0.232 N 
ENDROOT
BRANCH   2   3
ATOM      3  N   UNL     1       2.282   1.538  -0.042  1.00  0.00    +0.057 NA
ATOM      4  O   UNL     1       1.871   2.347   0.797  1.00  0.00    -0.125 OA
ENDBRANCH   2   3
BRANCH   2   5
ATOM      5  C   UNL     1       0.216   0.191   0.030  1.00  0.00    +0.062 A 
ATOM      6  C   UNL     1      -0.641   1.248  -0.334  1.00  0.00    +0.028 A 
ATOM      7  C   UNL     1      -0.399  -1.010   0.437  1.00  0.00    +0.028 A 
ATOM      8  C   UNL     1      -2.034   1.112  -0.308  1.00  0.00    +0.002 A 
ATOM      9  C   UNL     1      -1.792  -1.150   0.466  1.00  0.00    +0.002 A 
ATOM     10  C   UNL     1      -2.609  -0.089   0.091  1.00  0.00    +0.000 A 
ENDBRANCH   2   5
TORSDOF 2
