REMARK SMILES CCCCOC(=O)CSC#N
REMARK SMILES IDX 4 1 3 2 2 3 1 4 5 5 6 6 7 7 8 8 9 9 10 10 11 11
REMARK H PARENT
ROOT
ATOM      1  C   UNL     1       0.094   0.939   0.235  1.00  0.00    +0.233 C 
ENDROOT
BRANCH   1   2
ATOM      2  C   UNL     1      -0.858   0.345   1.270  1.00  0.00    +0.041 C 
BRANCH   2   3
ATOM      3  C   UNL     1      -2.168   1.118   1.407  1.00  0.00    +0.000 C 
ATOM      4  C   UNL     1      -3.036   1.062   0.160  1.00  0.00    +0.004 C 
ENDBRANCH   2   3
ENDBRANCH   1   2
BRANCH   1   5
ATOM      5  O   UNL     1       1.348   0.235   0.264  1.00  0.00    -0.465 OA
BRANCH   5   6
ATOM      6  C   UNL     1       1.419  -0.887  -0.512  1.00  0.00    +0.316 C 
ATOM      7  O   UNL     1       0.500  -1.329  -1.187  1.00  0.00    -0.251 OA
BRANCH   6   8
ATOM      8  C   UNL     1       2.798  -1.497  -0.369  1.00  0.00    +0.208 C 
BRANCH   8   9
ATOM      9  S   UNL     1       3.098  -2.828  -1.567  1.00  0.00    -0.035 SA
ATOM     10  C   UNL     1       3.122  -1.877  -2.964  1.00  0.00    +0.133 C 
ATOM     11  N   UNL     1       3.165  -1.193  -3.898  1.00  0.00    -0.185 NA
ENDBRANCH   8   9
ENDBRANCH   6   8
ENDBRANCH   5   6
ENDBRANCH   1   5
TORSDOF 6
