REMARK SMILES Nc1ccc(F)cc1
REMARK SMILES IDX 2 1 3 2 4 3 5 4 6 5 7 6 8 7 1 8
REMARK H PARENT 1 9 1 10
ROOT
ATOM      1  C   UNL     1       0.885   0.313  -0.059  1.00  0.00    +0.032 A 
ATOM      2  C   UNL     1       0.499  -0.856  -0.724  1.00  0.00    +0.028 A 
ATOM      3  C   UNL     1      -0.807  -1.339  -0.613  1.00  0.00    +0.041 A 
ATOM      4  C   UNL     1      -1.738  -0.626   0.131  1.00  0.00    +0.123 A 
ATOM      5  F   UNL     1      -2.993  -1.084   0.235  1.00  0.00    -0.207 F 
ATOM      6  C   UNL     1      -1.391   0.567   0.751  1.00  0.00    +0.041 A 
ATOM      7  C   UNL     1      -0.083   1.045   0.637  1.00  0.00    +0.028 A 
ENDROOT
BRANCH   1   8
ATOM      8  N   UNL     1       2.158   0.854  -0.271  1.00  0.00    -0.399 N 
ATOM      9  H   UNL     1       2.868   0.165  -0.497  1.00  0.00    +0.156 HD
ATOM     10  H   UNL     1       2.460   1.495   0.455  1.00  0.00    +0.156 HD
ENDBRANCH   1   8
TORSDOF 1
