MODEL 1
REMARK VINA RESULT:    -7.794      0.000      0.000
REMARK INTER + INTRA:         -12.579
REMARK INTER:                 -11.894
REMARK INTRA:                  -0.685
REMARK UNBOUND:                -0.685
REMARK SMILES CCN(CC)CCCNC(=O)NN=Cc1ccc([N+](=O)[O-])o1
REMARK SMILES IDX 8 1 7 2 6 3 3 4 2 5 1 6 4 7 5 8 9 9 10 10 11 11 12 12 13 15
REMARK SMILES IDX 14 16 15 17 16 18 22 19 17 20 18 21 19 22 20 23 21 24
REMARK H PARENT 9 13 12 14
ROOT
ATOM      1  C   UNL     1     -35.136   6.196   7.540  1.00  0.00    +0.119 C 
ENDROOT
BRANCH   1   2
ATOM      2  C   UNL     1     -34.717   4.937   8.294  1.00  0.00    +0.037 C 
BRANCH   2   3
ATOM      3  C   UNL     1     -34.652   5.049   9.826  1.00  0.00    +0.086 C 
BRANCH   3   4
ATOM      4  N   UNL     1     -35.829   4.688  10.636  1.00  0.00    -0.304 NA
BRANCH   4   5
ATOM      5  C   UNL     1     -36.835   3.924   9.893  1.00  0.00    +0.081 C 
ATOM      6  C   UNL     1     -37.379   2.755  10.709  1.00  0.00    +0.021 C 
ENDBRANCH   4   5
BRANCH   4   7
ATOM      7  C   UNL     1     -36.409   5.793  11.410  1.00  0.00    +0.081 C 
ATOM      8  C   UNL     1     -37.219   6.767  10.559  1.00  0.00    +0.021 C 
ENDBRANCH   4   7
ENDBRANCH   3   4
ENDBRANCH   2   3
ENDBRANCH   1   2
BRANCH   1   9
ATOM      9  N   UNL     1     -34.270   7.336   7.777  1.00  0.00    -0.337 N 
ATOM     10  C   UNL     1     -33.230   7.620   6.914  1.00  0.00    +0.335 C 
ATOM     11  O   UNL     1     -33.004   6.987   5.891  1.00  0.00    -0.247 OA
ATOM     12  N   UNL     1     -32.493   8.707   7.377  1.00  0.00    -0.229 N 
ATOM     13  H   UNL     1     -34.076   7.556   8.744  1.00  0.00    +0.165 HD
ATOM     14  H   UNL     1     -33.058   9.403   7.853  1.00  0.00    +0.195 HD
BRANCH  12  15
ATOM     15  N   UNL     1     -31.454   9.270   6.669  1.00  0.00    -0.176 NA
ATOM     16  C   UNL     1     -30.835  10.266   7.224  1.00  0.00    +0.180 C 
BRANCH  16  17
ATOM     17  C   UNL     1     -29.717  10.880   6.562  1.00  0.00    +0.154 A 
ATOM     18  C   UNL     1     -29.494  12.174   6.123  1.00  0.00    +0.060 A 
ATOM     19  O   UNL     1     -28.626  10.102   6.279  1.00  0.00    -0.400 OA
ATOM     20  C   UNL     1     -28.204  12.196   5.535  1.00  0.00    +0.134 A 
ATOM     21  C   UNL     1     -27.727  10.913   5.660  1.00  0.00    +0.433 A 
BRANCH  21  22
ATOM     22  N   UNL     1     -26.492  10.316   5.264  1.00  0.00    +0.102 N 
ATOM     23  O   UNL     1     -25.471  10.627   5.890  1.00  0.00    -0.256 OA
ATOM     24  O   UNL     1     -26.545   9.528   4.309  1.00  0.00    -0.256 OA
ENDBRANCH  21  22
ENDBRANCH  16  17
ENDBRANCH  12  15
ENDBRANCH   1   9
TORSDOF 9
ENDMDL
MODEL 2
REMARK VINA RESULT:    -7.704      6.974      8.062
REMARK INTER + INTRA:         -12.443
REMARK INTER:                 -11.924
REMARK INTRA:                  -0.519
REMARK UNBOUND:                -0.685
REMARK SMILES CCN(CC)CCCNC(=O)NN=Cc1ccc([N+](=O)[O-])o1
REMARK SMILES IDX 8 1 7 2 6 3 3 4 2 5 1 6 4 7 5 8 9 9 10 10 11 11 12 12 13 15
REMARK SMILES IDX 14 16 15 17 16 18 22 19 17 20 18 21 19 22 20 23 21 24
REMARK H PARENT 9 13 12 14
ROOT
ATOM      1  C   UNL     1     -26.282   3.596   9.132  1.00  0.00    +0.119 C 
ENDROOT
BRANCH   1   2
ATOM      2  C   UNL     1     -25.405   3.691  10.378  1.00  0.00    +0.037 C 
BRANCH   2   3
ATOM      3  C   UNL     1     -25.199   2.388  11.167  1.00  0.00    +0.086 C 
BRANCH   3   4
ATOM      4  N   UNL     1     -24.544   1.237  10.520  1.00  0.00    -0.304 NA
BRANCH   4   5
ATOM      5  C   UNL     1     -25.477   0.164  10.161  1.00  0.00    +0.081 C 
ATOM      6  C   UNL     1     -24.781  -1.193  10.092  1.00  0.00    +0.021 C 
ENDBRANCH   4   5
BRANCH   4   7
ATOM      7  C   UNL     1     -23.344   0.742  11.206  1.00  0.00    +0.081 C 
ATOM      8  C   UNL     1     -22.048   1.334  10.659  1.00  0.00    +0.021 C 
ENDBRANCH   4   7
ENDBRANCH   3   4
ENDBRANCH   2   3
ENDBRANCH   1   2
BRANCH   1   9
ATOM      9  N   UNL     1     -27.249   4.671   9.013  1.00  0.00    -0.337 N 
ATOM     10  C   UNL     1     -26.897   5.873   8.432  1.00  0.00    +0.335 C 
ATOM     11  O   UNL     1     -25.797   6.094   7.940  1.00  0.00    -0.247 OA
ATOM     12  N   UNL     1     -27.955   6.775   8.493  1.00  0.00    -0.229 N 
ATOM     13  H   UNL     1     -27.915   4.758   9.767  1.00  0.00    +0.165 HD
ATOM     14  H   UNL     1     -28.865   6.335   8.407  1.00  0.00    +0.195 HD
BRANCH  12  15
ATOM     15  N   UNL     1     -27.919   8.022   7.906  1.00  0.00    -0.176 NA
ATOM     16  C   UNL     1     -29.052   8.525   7.523  1.00  0.00    +0.180 C 
BRANCH  16  17
ATOM     17  C   UNL     1     -29.097   9.837   6.937  1.00  0.00    +0.154 A 
ATOM     18  C   UNL     1     -30.073  10.818   6.931  1.00  0.00    +0.060 A 
ATOM     19  O   UNL     1     -28.002  10.271   6.237  1.00  0.00    -0.400 OA
ATOM     20  C   UNL     1     -29.560  11.911   6.187  1.00  0.00    +0.134 A 
ATOM     21  C   UNL     1     -28.302  11.520   5.794  1.00  0.00    +0.433 A 
BRANCH  21  22
ATOM     22  N   UNL     1     -27.297  12.186   5.027  1.00  0.00    +0.102 N 
ATOM     23  O   UNL     1     -26.251  11.571   4.784  1.00  0.00    -0.256 OA
ATOM     24  O   UNL     1     -27.558  13.343   4.670  1.00  0.00    -0.256 OA
ENDBRANCH  21  22
ENDBRANCH  16  17
ENDBRANCH  12  15
ENDBRANCH   1   9
TORSDOF 9
ENDMDL
MODEL 3
REMARK VINA RESULT:    -7.514      5.881      6.698
REMARK INTER + INTRA:         -12.153
REMARK INTER:                 -11.622
REMARK INTRA:                  -0.531
REMARK UNBOUND:                -0.685
REMARK SMILES CCN(CC)CCCNC(=O)NN=Cc1ccc([N+](=O)[O-])o1
REMARK SMILES IDX 8 1 7 2 6 3 3 4 2 5 1 6 4 7 5 8 9 9 10 10 11 11 12 12 13 15
REMARK SMILES IDX 14 16 15 17 16 18 22 19 17 20 18 21 19 22 20 23 21 24
REMARK H PARENT 9 13 12 14
ROOT
ATOM      1  C   UNL     1     -26.452   3.264   9.093  1.00  0.00    +0.119 C 
ENDROOT
BRANCH   1   2
ATOM      2  C   UNL     1     -26.249   2.613  10.458  1.00  0.00    +0.037 C 
BRANCH   2   3
ATOM      3  C   UNL     1     -26.568   1.112  10.551  1.00  0.00    +0.086 C 
BRANCH   3   4
ATOM      4  N   UNL     1     -27.713   0.655  11.358  1.00  0.00    -0.304 NA
BRANCH   4   5
ATOM      5  C   UNL     1     -27.481   0.747  12.803  1.00  0.00    +0.081 C 
ATOM      6  C   UNL     1     -28.431   1.738  13.469  1.00  0.00    +0.021 C 
ENDBRANCH   4   5
BRANCH   4   7
ATOM      7  C   UNL     1     -28.279  -0.638  10.953  1.00  0.00    +0.081 C 
ATOM      8  C   UNL     1     -29.493  -0.508  10.038  1.00  0.00    +0.021 C 
ENDBRANCH   4   7
ENDBRANCH   3   4
ENDBRANCH   2   3
ENDBRANCH   1   2
BRANCH   1   9
ATOM      9  N   UNL     1     -27.287   4.449   9.128  1.00  0.00    -0.337 N 
ATOM     10  C   UNL     1     -26.920   5.590   8.440  1.00  0.00    +0.335 C 
ATOM     11  O   UNL     1     -25.925   5.664   7.729  1.00  0.00    -0.247 OA
ATOM     12  N   UNL     1     -27.828   6.618   8.676  1.00  0.00    -0.229 N 
ATOM     13  H   UNL     1     -27.771   4.630   9.996  1.00  0.00    +0.165 HD
ATOM     14  H   UNL     1     -28.782   6.293   8.792  1.00  0.00    +0.195 HD
BRANCH  12  15
ATOM     15  N   UNL     1     -27.763   7.841   8.046  1.00  0.00    -0.176 NA
ATOM     16  C   UNL     1     -28.881   8.346   7.624  1.00  0.00    +0.180 C 
BRANCH  16  17
ATOM     17  C   UNL     1     -28.896   9.636   6.990  1.00  0.00    +0.154 A 
ATOM     18  C   UNL     1     -29.868  10.619   6.907  1.00  0.00    +0.060 A 
ATOM     19  O   UNL     1     -27.771  10.043   6.323  1.00  0.00    -0.400 OA
ATOM     20  C   UNL     1     -29.320  11.683   6.147  1.00  0.00    +0.134 A 
ATOM     21  C   UNL     1     -28.047  11.276   5.823  1.00  0.00    +0.433 A 
BRANCH  21  22
ATOM     22  N   UNL     1     -27.008  11.912   5.077  1.00  0.00    +0.102 N 
ATOM     23  O   UNL     1     -25.946  11.296   4.921  1.00  0.00    -0.256 OA
ATOM     24  O   UNL     1     -27.257  13.047   4.648  1.00  0.00    -0.256 OA
ENDBRANCH  21  22
ENDBRANCH  16  17
ENDBRANCH  12  15
ENDBRANCH   1   9
TORSDOF 9
ENDMDL
MODEL 4
REMARK VINA RESULT:    -7.336      6.332      7.098
REMARK INTER + INTRA:         -11.880
REMARK INTER:                 -11.260
REMARK INTRA:                  -0.620
REMARK UNBOUND:                -0.685
REMARK SMILES CCN(CC)CCCNC(=O)NN=Cc1ccc([N+](=O)[O-])o1
REMARK SMILES IDX 8 1 7 2 6 3 3 4 2 5 1 6 4 7 5 8 9 9 10 10 11 11 12 12 13 15
REMARK SMILES IDX 14 16 15 17 16 18 22 19 17 20 18 21 19 22 20 23 21 24
REMARK H PARENT 9 13 12 14
ROOT
ATOM      1  C   UNL     1     -26.199   2.012   9.511  1.00  0.00    +0.119 C 
ENDROOT
BRANCH   1   2
ATOM      2  C   UNL     1     -26.013   1.810  11.013  1.00  0.00    +0.037 C 
BRANCH   2   3
ATOM      3  C   UNL     1     -26.326   0.406  11.555  1.00  0.00    +0.086 C 
BRANCH   3   4
ATOM      4  N   UNL     1     -27.602   0.157  12.249  1.00  0.00    -0.304 NA
BRANCH   4   5
ATOM      5  C   UNL     1     -28.412  -0.889  11.619  1.00  0.00    +0.081 C 
ATOM      6  C   UNL     1     -28.939  -0.456  10.254  1.00  0.00    +0.021 C 
ENDBRANCH   4   5
BRANCH   4   7
ATOM      7  C   UNL     1     -28.377   1.363  12.569  1.00  0.00    +0.081 C 
ATOM      8  C   UNL     1     -28.828   1.424  14.026  1.00  0.00    +0.021 C 
ENDBRANCH   4   7
ENDBRANCH   3   4
ENDBRANCH   2   3
ENDBRANCH   1   2
BRANCH   1   9
ATOM      9  N   UNL     1     -25.777   3.318   9.039  1.00  0.00    -0.337 N 
ATOM     10  C   UNL     1     -26.694   4.339   8.883  1.00  0.00    +0.335 C 
ATOM     11  O   UNL     1     -27.880   4.238   9.175  1.00  0.00    -0.247 OA
ATOM     12  N   UNL     1     -26.081   5.471   8.353  1.00  0.00    -0.229 N 
ATOM     13  H   UNL     1     -25.030   3.328   8.360  1.00  0.00    +0.165 HD
ATOM     14  H   UNL     1     -25.124   5.594   8.667  1.00  0.00    +0.195 HD
BRANCH  12  15
ATOM     15  N   UNL     1     -26.735   6.671   8.179  1.00  0.00    -0.176 NA
ATOM     16  C   UNL     1     -26.443   7.351   7.114  1.00  0.00    +0.180 C 
BRANCH  16  17
ATOM     17  C   UNL     1     -27.112   8.595   6.846  1.00  0.00    +0.154 A 
ATOM     18  C   UNL     1     -28.326   9.107   7.271  1.00  0.00    +0.060 A 
ATOM     19  O   UNL     1     -26.492   9.499   6.024  1.00  0.00    -0.400 OA
ATOM     20  C   UNL     1     -28.467  10.387   6.679  1.00  0.00    +0.134 A 
ATOM     21  C   UNL     1     -27.325  10.570   5.936  1.00  0.00    +0.433 A 
BRANCH  21  22
ATOM     22  N   UNL     1     -26.886  11.657   5.121  1.00  0.00    +0.102 N 
ATOM     23  O   UNL     1     -25.849  11.506   4.462  1.00  0.00    -0.256 OA
ATOM     24  O   UNL     1     -27.586  12.678   5.146  1.00  0.00    -0.256 OA
ENDBRANCH  21  22
ENDBRANCH  16  17
ENDBRANCH  12  15
ENDBRANCH   1   9
TORSDOF 9
ENDMDL
MODEL 5
REMARK VINA RESULT:    -7.331      7.185      7.905
REMARK INTER + INTRA:         -11.874
REMARK INTER:                 -11.042
REMARK INTRA:                  -0.831
REMARK UNBOUND:                -0.685
REMARK SMILES CCN(CC)CCCNC(=O)NN=Cc1ccc([N+](=O)[O-])o1
REMARK SMILES IDX 8 1 7 2 6 3 3 4 2 5 1 6 4 7 5 8 9 9 10 10 11 11 12 12 13 15
REMARK SMILES IDX 14 16 15 17 16 18 22 19 17 20 18 21 19 22 20 23 21 24
REMARK H PARENT 9 13 12 14
ROOT
ATOM      1  C   UNL     1     -26.078  -0.661  10.916  1.00  0.00    +0.119 C 
ENDROOT
BRANCH   1   2
ATOM      2  C   UNL     1     -27.508  -0.927  11.381  1.00  0.00    +0.037 C 
BRANCH   2   3
ATOM      3  C   UNL     1     -28.037  -0.026  12.508  1.00  0.00    +0.086 C 
BRANCH   3   4
ATOM      4  N   UNL     1     -29.167   0.884  12.248  1.00  0.00    -0.304 NA
BRANCH   4   5
ATOM      5  C   UNL     1     -30.441   0.399  12.789  1.00  0.00    +0.081 C 
ATOM      6  C   UNL     1     -30.555   0.655  14.289  1.00  0.00    +0.021 C 
ENDBRANCH   4   5
BRANCH   4   7
ATOM      7  C   UNL     1     -29.278   1.351  10.860  1.00  0.00    +0.081 C 
ATOM      8  C   UNL     1     -30.706   1.705  10.454  1.00  0.00    +0.021 C 
ENDBRANCH   4   7
ENDBRANCH   3   4
ENDBRANCH   2   3
ENDBRANCH   1   2
BRANCH   1   9
ATOM      9  N   UNL     1     -25.696   0.737  10.971  1.00  0.00    -0.337 N 
ATOM     10  C   UNL     1     -25.763   1.529   9.842  1.00  0.00    +0.335 C 
ATOM     11  O   UNL     1     -26.188   1.139   8.762  1.00  0.00    -0.247 OA
ATOM     12  N   UNL     1     -25.281   2.807  10.111  1.00  0.00    -0.229 N 
ATOM     13  H   UNL     1     -24.933   0.968  11.592  1.00  0.00    +0.165 HD
ATOM     14  H   UNL     1     -25.483   3.124  11.054  1.00  0.00    +0.195 HD
BRANCH  12  15
ATOM     15  N   UNL     1     -25.316   3.835   9.194  1.00  0.00    -0.176 NA
ATOM     16  C   UNL     1     -26.313   4.661   9.273  1.00  0.00    +0.180 C 
BRANCH  16  17
ATOM     17  C   UNL     1     -26.396   5.780   8.375  1.00  0.00    +0.154 A 
ATOM     18  C   UNL     1     -25.611   6.171   7.303  1.00  0.00    +0.060 A 
ATOM     19  O   UNL     1     -27.421   6.672   8.546  1.00  0.00    -0.400 OA
ATOM     20  C   UNL     1     -26.175   7.366   6.789  1.00  0.00    +0.134 A 
ATOM     21  C   UNL     1     -27.269   7.619   7.583  1.00  0.00    +0.433 A 
BRANCH  21  22
ATOM     22  N   UNL     1     -28.235   8.671   7.561  1.00  0.00    +0.102 N 
ATOM     23  O   UNL     1     -27.860   9.809   7.870  1.00  0.00    -0.256 OA
ATOM     24  O   UNL     1     -29.386   8.352   7.235  1.00  0.00    -0.256 OA
ENDBRANCH  21  22
ENDBRANCH  16  17
ENDBRANCH  12  15
ENDBRANCH   1   9
TORSDOF 9
ENDMDL
MODEL 6
REMARK VINA RESULT:    -7.143      1.745      2.009
REMARK INTER + INTRA:         -11.586
REMARK INTER:                 -11.072
REMARK INTRA:                  -0.514
REMARK UNBOUND:                -0.685
REMARK SMILES CCN(CC)CCCNC(=O)NN=Cc1ccc([N+](=O)[O-])o1
REMARK SMILES IDX 8 1 7 2 6 3 3 4 2 5 1 6 4 7 5 8 9 9 10 10 11 11 12 12 13 15
REMARK SMILES IDX 14 16 15 17 16 18 22 19 17 20 18 21 19 22 20 23 21 24
REMARK H PARENT 9 13 12 14
ROOT
ATOM      1  C   UNL     1     -33.231   4.177   9.982  1.00  0.00    +0.119 C 
ENDROOT
BRANCH   1   2
ATOM      2  C   UNL     1     -34.275   4.227  11.094  1.00  0.00    +0.037 C 
BRANCH   2   3
ATOM      3  C   UNL     1     -35.185   5.466  11.119  1.00  0.00    +0.086 C 
BRANCH   3   4
ATOM      4  N   UNL     1     -36.635   5.314  10.906  1.00  0.00    -0.304 NA
BRANCH   4   5
ATOM      5  C   UNL     1     -36.985   4.138  10.104  1.00  0.00    +0.081 C 
ATOM      6  C   UNL     1     -37.813   3.134  10.900  1.00  0.00    +0.021 C 
ENDBRANCH   4   5
BRANCH   4   7
ATOM      7  C   UNL     1     -37.327   6.532  10.463  1.00  0.00    +0.081 C 
ATOM      8  C   UNL     1     -38.578   6.250   9.637  1.00  0.00    +0.021 C 
ENDBRANCH   4   7
ENDBRANCH   3   4
ENDBRANCH   2   3
ENDBRANCH   1   2
BRANCH   1   9
ATOM      9  N   UNL     1     -33.126   5.408   9.221  1.00  0.00    -0.337 N 
ATOM     10  C   UNL     1     -31.890   5.921   8.879  1.00  0.00    +0.335 C 
ATOM     11  O   UNL     1     -30.829   5.365   9.135  1.00  0.00    -0.247 OA
ATOM     12  N   UNL     1     -32.031   7.138   8.219  1.00  0.00    -0.229 N 
ATOM     13  H   UNL     1     -33.826   6.111   9.411  1.00  0.00    +0.165 HD
ATOM     14  H   UNL     1     -32.860   7.187   7.636  1.00  0.00    +0.195 HD
BRANCH  12  15
ATOM     15  N   UNL     1     -30.969   7.831   7.679  1.00  0.00    -0.176 NA
ATOM     16  C   UNL     1     -31.162   9.084   7.406  1.00  0.00    +0.180 C 
BRANCH  16  17
ATOM     17  C   UNL     1     -30.089   9.880   6.876  1.00  0.00    +0.154 A 
ATOM     18  C   UNL     1     -29.988  11.232   6.590  1.00  0.00    +0.060 A 
ATOM     19  O   UNL     1     -28.908   9.255   6.572  1.00  0.00    -0.400 OA
ATOM     20  C   UNL     1     -28.683  11.452   6.080  1.00  0.00    +0.134 A 
ATOM     21  C   UNL     1     -28.077  10.219   6.094  1.00  0.00    +0.433 A 
BRANCH  21  22
ATOM     22  N   UNL     1     -26.768   9.799   5.706  1.00  0.00    +0.102 N 
ATOM     23  O   UNL     1     -26.562   9.580   4.506  1.00  0.00    -0.256 OA
ATOM     24  O   UNL     1     -25.937   9.683   6.617  1.00  0.00    -0.256 OA
ENDBRANCH  21  22
ENDBRANCH  16  17
ENDBRANCH  12  15
ENDBRANCH   1   9
TORSDOF 9
ENDMDL
MODEL 7
REMARK VINA RESULT:    -6.962      1.430      2.131
REMARK INTER + INTRA:         -11.310
REMARK INTER:                 -10.611
REMARK INTRA:                  -0.699
REMARK UNBOUND:                -0.685
REMARK SMILES CCN(CC)CCCNC(=O)NN=Cc1ccc([N+](=O)[O-])o1
REMARK SMILES IDX 8 1 7 2 6 3 3 4 2 5 1 6 4 7 5 8 9 9 10 10 11 11 12 12 13 15
REMARK SMILES IDX 14 16 15 17 16 18 22 19 17 20 18 21 19 22 20 23 21 24
REMARK H PARENT 9 13 12 14
ROOT
ATOM      1  C   UNL     1     -35.037   5.984   7.553  1.00  0.00    +0.119 C 
ENDROOT
BRANCH   1   2
ATOM      2  C   UNL     1     -35.119   4.525   7.995  1.00  0.00    +0.037 C 
BRANCH   2   3
ATOM      3  C   UNL     1     -33.918   3.985   8.788  1.00  0.00    +0.086 C 
BRANCH   3   4
ATOM      4  N   UNL     1     -34.070   3.659  10.217  1.00  0.00    -0.304 NA
BRANCH   4   5
ATOM      5  C   UNL     1     -32.994   2.811  10.738  1.00  0.00    +0.081 C 
ATOM      6  C   UNL     1     -31.929   2.532   9.682  1.00  0.00    +0.021 C 
ENDBRANCH   4   5
BRANCH   4   7
ATOM      7  C   UNL     1     -35.406   3.186  10.604  1.00  0.00    +0.081 C 
ATOM      8  C   UNL     1     -35.446   1.700  10.947  1.00  0.00    +0.021 C 
ENDBRANCH   4   7
ENDBRANCH   3   4
ENDBRANCH   2   3
ENDBRANCH   1   2
BRANCH   1   9
ATOM      9  N   UNL     1     -33.862   6.679   8.044  1.00  0.00    -0.337 N 
ATOM     10  C   UNL     1     -32.958   7.240   7.162  1.00  0.00    +0.335 C 
ATOM     11  O   UNL     1     -33.106   7.243   5.947  1.00  0.00    -0.247 OA
ATOM     12  N   UNL     1     -31.878   7.786   7.851  1.00  0.00    -0.229 N 
ATOM     13  H   UNL     1     -33.441   6.308   8.884  1.00  0.00    +0.165 HD
ATOM     14  H   UNL     1     -32.132   8.181   8.751  1.00  0.00    +0.195 HD
BRANCH  12  15
ATOM     15  N   UNL     1     -30.871   8.495   7.233  1.00  0.00    -0.176 NA
ATOM     16  C   UNL     1     -30.948   9.789   7.279  1.00  0.00    +0.180 C 
BRANCH  16  17
ATOM     17  C   UNL     1     -29.913  10.595   6.689  1.00  0.00    +0.154 A 
ATOM     18  C   UNL     1     -29.888  11.916   6.275  1.00  0.00    +0.060 A 
ATOM     19  O   UNL     1     -28.692  10.017   6.466  1.00  0.00    -0.400 OA
ATOM     20  C   UNL     1     -28.588  12.166   5.765  1.00  0.00    +0.134 A 
ATOM     21  C   UNL     1     -27.910  10.979   5.909  1.00  0.00    +0.433 A 
BRANCH  21  22
ATOM     22  N   UNL     1     -26.570  10.606   5.583  1.00  0.00    +0.102 N 
ATOM     23  O   UNL     1     -25.864  10.134   6.483  1.00  0.00    -0.256 OA
ATOM     24  O   UNL     1     -26.219  10.793   4.410  1.00  0.00    -0.256 OA
ENDBRANCH  21  22
ENDBRANCH  16  17
ENDBRANCH  12  15
ENDBRANCH   1   9
TORSDOF 9
ENDMDL
MODEL 8
REMARK VINA RESULT:    -6.915      6.470      7.346
REMARK INTER + INTRA:         -11.239
REMARK INTER:                 -10.614
REMARK INTRA:                  -0.624
REMARK UNBOUND:                -0.685
REMARK SMILES CCN(CC)CCCNC(=O)NN=Cc1ccc([N+](=O)[O-])o1
REMARK SMILES IDX 8 1 7 2 6 3 3 4 2 5 1 6 4 7 5 8 9 9 10 10 11 11 12 12 13 15
REMARK SMILES IDX 14 16 15 17 16 18 22 19 17 20 18 21 19 22 20 23 21 24
REMARK H PARENT 9 13 12 14
ROOT
ATOM      1  C   UNL     1     -25.978   1.239  10.491  1.00  0.00    +0.119 C 
ENDROOT
BRANCH   1   2
ATOM      2  C   UNL     1     -26.832   0.205   9.763  1.00  0.00    +0.037 C 
BRANCH   2   3
ATOM      3  C   UNL     1     -28.344   0.251  10.042  1.00  0.00    +0.086 C 
BRANCH   3   4
ATOM      4  N   UNL     1     -28.843   0.008  11.406  1.00  0.00    -0.304 NA
BRANCH   4   5
ATOM      5  C   UNL     1     -29.784  -1.114  11.490  1.00  0.00    +0.081 C 
ATOM      6  C   UNL     1     -30.880  -1.015  10.434  1.00  0.00    +0.021 C 
ENDBRANCH   4   5
BRANCH   4   7
ATOM      7  C   UNL     1     -29.319   1.204  12.113  1.00  0.00    +0.081 C 
ATOM      8  C   UNL     1     -29.168   1.112  13.629  1.00  0.00    +0.021 C 
ENDBRANCH   4   7
ENDBRANCH   3   4
ENDBRANCH   2   3
ENDBRANCH   1   2
BRANCH   1   9
ATOM      9  N   UNL     1     -25.429   2.262   9.621  1.00  0.00    -0.337 N 
ATOM     10  C   UNL     1     -25.995   3.521   9.571  1.00  0.00    +0.335 C 
ATOM     11  O   UNL     1     -26.934   3.872  10.275  1.00  0.00    -0.247 OA
ATOM     12  N   UNL     1     -25.353   4.309   8.620  1.00  0.00    -0.229 N 
ATOM     13  H   UNL     1     -25.054   1.944   8.739  1.00  0.00    +0.165 HD
ATOM     14  H   UNL     1     -24.360   4.117   8.542  1.00  0.00    +0.195 HD
BRANCH  12  15
ATOM     15  N   UNL     1     -25.647   5.641   8.422  1.00  0.00    -0.176 NA
ATOM     16  C   UNL     1     -25.324   6.149   7.273  1.00  0.00    +0.180 C 
BRANCH  16  17
ATOM     17  C   UNL     1     -25.633   7.522   6.979  1.00  0.00    +0.154 A 
ATOM     18  C   UNL     1     -24.843   8.587   6.578  1.00  0.00    +0.060 A 
ATOM     19  O   UNL     1     -26.935   7.931   7.094  1.00  0.00    -0.400 OA
ATOM     20  C   UNL     1     -25.698   9.710   6.443  1.00  0.00    +0.134 A 
ATOM     21  C   UNL     1     -26.952   9.251   6.768  1.00  0.00    +0.433 A 
BRANCH  21  22
ATOM     22  N   UNL     1     -28.221   9.906   6.816  1.00  0.00    +0.102 N 
ATOM     23  O   UNL     1     -28.277  11.088   6.454  1.00  0.00    -0.256 OA
ATOM     24  O   UNL     1     -29.172   9.228   7.227  1.00  0.00    -0.256 OA
ENDBRANCH  21  22
ENDBRANCH  16  17
ENDBRANCH  12  15
ENDBRANCH   1   9
TORSDOF 9
ENDMDL
MODEL 9
REMARK VINA RESULT:    -6.550      2.053      2.841
REMARK INTER + INTRA:         -10.681
REMARK INTER:                 -10.100
REMARK INTRA:                  -0.581
REMARK UNBOUND:                -0.685
REMARK SMILES CCN(CC)CCCNC(=O)NN=Cc1ccc([N+](=O)[O-])o1
REMARK SMILES IDX 8 1 7 2 6 3 3 4 2 5 1 6 4 7 5 8 9 9 10 10 11 11 12 12 13 15
REMARK SMILES IDX 14 16 15 17 16 18 22 19 17 20 18 21 19 22 20 23 21 24
REMARK H PARENT 9 13 12 14
ROOT
ATOM      1  C   UNL     1     -33.667   3.192   9.742  1.00  0.00    +0.119 C 
ENDROOT
BRANCH   1   2
ATOM      2  C   UNL     1     -35.155   3.121  10.071  1.00  0.00    +0.037 C 
BRANCH   2   3
ATOM      3  C   UNL     1     -35.975   4.393   9.796  1.00  0.00    +0.086 C 
BRANCH   3   4
ATOM      4  N   UNL     1     -37.391   4.452  10.198  1.00  0.00    -0.304 NA
BRANCH   4   5
ATOM      5  C   UNL     1     -38.306   4.671   9.074  1.00  0.00    +0.081 C 
ATOM      6  C   UNL     1     -38.917   6.069   9.102  1.00  0.00    +0.021 C 
ENDBRANCH   4   5
BRANCH   4   7
ATOM      7  C   UNL     1     -37.673   5.330  11.341  1.00  0.00    +0.081 C 
ATOM      8  C   UNL     1     -36.488   6.204  11.740  1.00  0.00    +0.021 C 
ENDBRANCH   4   7
ENDBRANCH   3   4
ENDBRANCH   2   3
ENDBRANCH   1   2
BRANCH   1   9
ATOM      9  N   UNL     1     -33.346   4.122   8.676  1.00  0.00    -0.337 N 
ATOM     10  C   UNL     1     -32.610   5.262   8.935  1.00  0.00    +0.335 C 
ATOM     11  O   UNL     1     -32.142   5.534  10.034  1.00  0.00    -0.247 OA
ATOM     12  N   UNL     1     -32.488   6.037   7.785  1.00  0.00    -0.229 N 
ATOM     13  H   UNL     1     -34.047   4.239   7.959  1.00  0.00    +0.165 HD
ATOM     14  H   UNL     1     -32.426   5.488   6.934  1.00  0.00    +0.195 HD
BRANCH  12  15
ATOM     15  N   UNL     1     -31.726   7.184   7.726  1.00  0.00    -0.176 NA
ATOM     16  C   UNL     1     -32.353   8.296   7.494  1.00  0.00    +0.180 C 
BRANCH  16  17
ATOM     17  C   UNL     1     -31.629   9.537   7.455  1.00  0.00    +0.154 A 
ATOM     18  C   UNL     1     -31.868  10.770   8.039  1.00  0.00    +0.060 A 
ATOM     19  O   UNL     1     -30.472   9.589   6.724  1.00  0.00    -0.400 OA
ATOM     20  C   UNL     1     -30.810  11.628   7.646  1.00  0.00    +0.134 A 
ATOM     21  C   UNL     1     -29.996  10.856   6.851  1.00  0.00    +0.433 A 
BRANCH  21  22
ATOM     22  N   UNL     1     -28.779  11.154   6.166  1.00  0.00    +0.102 N 
ATOM     23  O   UNL     1     -27.829  10.373   6.306  1.00  0.00    -0.256 OA
ATOM     24  O   UNL     1     -28.773  12.187   5.483  1.00  0.00    -0.256 OA
ENDBRANCH  21  22
ENDBRANCH  16  17
ENDBRANCH  12  15
ENDBRANCH   1   9
TORSDOF 9
ENDMDL
