REMARK SMILES CCOC(=O)c1ccc2ccc3ccccc3c2c1
REMARK SMILES IDX 3 1 2 2 1 3 4 4 5 5 6 6 19 7 7 8 18 9 8 10 17 11 9 12 16 13
REMARK SMILES IDX 12 14 10 15 15 16 13 17 11 18 14 19
REMARK H PARENT
ROOT
ATOM      1  O   UNL     1       3.725  -0.134  -0.588  1.00  0.00    -0.462 OA
ENDROOT
BRANCH   1   2
ATOM      2  C   UNL     1       5.005  -0.639  -0.180  1.00  0.00    +0.230 C 
ATOM      3  C   UNL     1       5.557   0.194   0.961  1.00  0.00    +0.049 C 
ENDBRANCH   1   2
BRANCH   1   4
ATOM      4  C   UNL     1       2.657  -0.615   0.096  1.00  0.00    +0.338 C 
ATOM      5  O   UNL     1       2.696  -1.422   1.011  1.00  0.00    -0.246 OA
BRANCH   4   6
ATOM      6  C   UNL     1       1.393  -0.019  -0.420  1.00  0.00    +0.060 A 
ATOM      7  C   UNL     1       0.183  -0.409   0.177  1.00  0.00    +0.025 A 
ATOM      8  C   UNL     1       1.373   0.903  -1.464  1.00  0.00    +0.016 A 
ATOM      9  C   UNL     1      -1.073   0.101  -0.241  1.00  0.00    -0.010 A 
ATOM     10  C   UNL     1       0.156   1.425  -1.901  1.00  0.00    +0.009 A 
ATOM     11  C   UNL     1      -2.334  -0.274   0.346  1.00  0.00    -0.011 A 
ATOM     12  C   UNL     1      -1.056   1.038  -1.306  1.00  0.00    -0.018 A 
ATOM     13  C   UNL     1      -2.475  -1.197   1.413  1.00  0.00    +0.009 A 
ATOM     14  C   UNL     1      -3.529   0.303  -0.156  1.00  0.00    -0.018 A 
ATOM     15  C   UNL     1      -2.254   1.584  -1.773  1.00  0.00    +0.009 A 
ATOM     16  C   UNL     1      -3.722  -1.531   1.952  1.00  0.00    +0.001 A 
ATOM     17  C   UNL     1      -4.776  -0.040   0.394  1.00  0.00    +0.009 A 
ATOM     18  C   UNL     1      -3.472   1.222  -1.206  1.00  0.00    +0.009 A 
ATOM     19  C   UNL     1      -4.873  -0.952   1.442  1.00  0.00    +0.001 A 
ENDBRANCH   4   6
ENDBRANCH   1   4
TORSDOF 3
