REMARK SMILES COc1ccc2nc3cc(Cl)ccc3c(C=O)c2c1
REMARK SMILES IDX 3 1 19 2 18 3 15 4 14 5 13 6 12 7 10 8 11 9 9 10 8 11 7 12
REMARK SMILES IDX 6 13 5 14 4 15 2 16 1 17 16 18 17 19
REMARK H PARENT
ROOT
ATOM      1  C   UNL     1       2.837   0.188  -0.122  1.00  0.00    +0.119 A 
ATOM      2  C   UNL     1       1.674   0.934  -0.327  1.00  0.00    +0.057 A 
ATOM      3  C   UNL     1       0.377   0.366  -0.180  1.00  0.00    +0.015 A 
ATOM      4  C   UNL     1      -0.857   1.043  -0.368  1.00  0.00    +0.033 A 
ATOM      5  C   UNL     1      -2.105   0.393  -0.164  1.00  0.00    +0.011 A 
ATOM      6  C   UNL     1      -3.392   0.971  -0.343  1.00  0.00    +0.012 A 
ATOM      7  C   UNL     1      -4.557   0.238  -0.119  1.00  0.00    +0.021 A 
ATOM      8  C   UNL     1      -4.457  -1.084   0.279  1.00  0.00    +0.043 A 
ATOM      9 Cl   UNL     1      -5.881  -2.007   0.559  1.00  0.00    -0.084 Cl
ATOM     10  C   UNL     1      -3.205  -1.669   0.448  1.00  0.00    +0.049 A 
ATOM     11  C   UNL     1      -2.036  -0.955   0.230  1.00  0.00    +0.073 A 
ATOM     12  N   UNL     1      -0.879  -1.606   0.400  1.00  0.00    -0.248 NA
ATOM     13  C   UNL     1       0.287  -0.978   0.207  1.00  0.00    +0.072 A 
ATOM     14  C   UNL     1       1.452  -1.706   0.406  1.00  0.00    +0.033 A 
ATOM     15  C   UNL     1       2.722  -1.143   0.243  1.00  0.00    +0.048 A 
ENDROOT
BRANCH   1  16
ATOM     16  O   UNL     1       4.001   0.878  -0.309  1.00  0.00    -0.497 OA
ATOM     17  C   UNL     1       5.214   0.167  -0.086  1.00  0.00    +0.278 C 
ENDBRANCH   1  16
BRANCH   4  18
ATOM     18  C   UNL     1      -0.816   2.459  -0.814  1.00  0.00    +0.261 C 
ATOM     19  O   UNL     1      -1.603   3.310  -0.421  1.00  0.00    -0.298 OA
ENDBRANCH   4  18
TORSDOF 2
