MODEL 1
REMARK VINA RESULT:    -3.526      0.000      0.000
REMARK INTER + INTRA:          -3.629
REMARK INTER:                  -3.629
REMARK INTRA:                   0.000
REMARK UNBOUND:                 0.000
REMARK SMILES CS(N)(=O)=O
REMARK SMILES IDX 1 1 2 2 4 3 5 4 3 5
REMARK H PARENT 3 6 3 7
ROOT
ATOM      1  C   UNL     1     -34.191  -2.367   0.629  1.00  0.00    +0.176 C 
ATOM      2  S   UNL     1     -33.674  -1.563  -0.871  1.00  0.00    +0.206 S 
ATOM      3  O   UNL     1     -32.891  -2.479  -1.665  1.00  0.00    -0.213 OA
ATOM      4  O   UNL     1     -33.230  -0.222  -0.573  1.00  0.00    -0.213 OA
ENDROOT
BRANCH   2   5
ATOM      5  N   UNL     1     -35.129  -1.387  -1.685  1.00  0.00    -0.229 NA
ATOM      6  H   UNL     1     -35.545  -2.304  -1.859  1.00  0.00    +0.137 HD
ATOM      7  H   UNL     1     -35.744  -0.755  -1.168  1.00  0.00    +0.137 HD
ENDBRANCH   2   5
TORSDOF 1
ENDMDL
MODEL 2
REMARK VINA RESULT:    -3.516      1.750      2.326
REMARK INTER + INTRA:          -3.619
REMARK INTER:                  -3.619
REMARK INTRA:                   0.000
REMARK UNBOUND:                 0.000
REMARK SMILES CS(N)(=O)=O
REMARK SMILES IDX 1 1 2 2 4 3 5 4 3 5
REMARK H PARENT 3 6 3 7
ROOT
ATOM      1  C   UNL     1     -34.716  -0.909  -1.707  1.00  0.00    +0.176 C 
ATOM      2  S   UNL     1     -33.631  -1.915  -0.719  1.00  0.00    +0.206 S 
ATOM      3  O   UNL     1     -33.055  -1.114   0.335  1.00  0.00    -0.213 OA
ATOM      4  O   UNL     1     -32.831  -2.753  -1.581  1.00  0.00    -0.213 OA
ENDROOT
BRANCH   2   5
ATOM      5  N   UNL     1     -34.714  -2.947   0.037  1.00  0.00    -0.229 NA
ATOM      6  H   UNL     1     -34.207  -3.661   0.563  1.00  0.00    +0.137 HD
ATOM      7  H   UNL     1     -35.367  -2.408   0.610  1.00  0.00    +0.137 HD
ENDBRANCH   2   5
TORSDOF 1
ENDMDL
MODEL 3
REMARK VINA RESULT:    -3.352     15.252     15.544
REMARK INTER + INTRA:          -3.450
REMARK INTER:                  -3.450
REMARK INTRA:                   0.000
REMARK UNBOUND:                 0.000
REMARK SMILES CS(N)(=O)=O
REMARK SMILES IDX 1 1 2 2 4 3 5 4 3 5
REMARK H PARENT 3 6 3 7
ROOT
ATOM      1  C   UNL     1     -27.863  10.688   6.162  1.00  0.00    +0.176 C 
ATOM      2  S   UNL     1     -26.277   9.931   5.888  1.00  0.00    +0.206 S 
ATOM      3  O   UNL     1     -26.321   9.140   4.681  1.00  0.00    -0.213 OA
ATOM      4  O   UNL     1     -25.766   9.413   7.135  1.00  0.00    -0.213 OA
ENDROOT
BRANCH   2   5
ATOM      5  N   UNL     1     -25.321  11.259   5.524  1.00  0.00    -0.229 NA
ATOM      6  H   UNL     1     -25.351  11.447   4.521  1.00  0.00    +0.137 HD
ATOM      7  H   UNL     1     -25.603  12.059   6.095  1.00  0.00    +0.137 HD
ENDBRANCH   2   5
TORSDOF 1
ENDMDL
MODEL 4
REMARK VINA RESULT:    -3.293     15.100     15.399
REMARK INTER + INTRA:          -3.389
REMARK INTER:                  -3.389
REMARK INTRA:                   0.000
REMARK UNBOUND:                 0.000
REMARK SMILES CS(N)(=O)=O
REMARK SMILES IDX 1 1 2 2 4 3 5 4 3 5
REMARK H PARENT 3 6 3 7
ROOT
ATOM      1  C   UNL     1     -24.608   8.294   6.561  1.00  0.00    +0.176 C 
ATOM      2  S   UNL     1     -25.978   9.317   6.069  1.00  0.00    +0.206 S 
ATOM      3  O   UNL     1     -26.870   9.500   7.189  1.00  0.00    -0.213 OA
ATOM      4  O   UNL     1     -26.443   8.907   4.766  1.00  0.00    -0.213 OA
ENDROOT
BRANCH   2   5
ATOM      5  N   UNL     1     -25.232  10.800   5.837  1.00  0.00    -0.229 NA
ATOM      6  H   UNL     1     -25.583  11.238   4.984  1.00  0.00    +0.137 HD
ATOM      7  H   UNL     1     -25.348  11.383   6.669  1.00  0.00    +0.137 HD
ENDBRANCH   2   5
TORSDOF 1
ENDMDL
MODEL 5
REMARK VINA RESULT:    -3.138     13.243     13.622
REMARK INTER + INTRA:          -3.229
REMARK INTER:                  -3.229
REMARK INTRA:                   0.000
REMARK UNBOUND:                 0.000
REMARK SMILES CS(N)(=O)=O
REMARK SMILES IDX 1 1 2 2 4 3 5 4 3 5
REMARK H PARENT 3 6 3 7
ROOT
ATOM      1  C   UNL     1     -37.565   4.715  11.008  1.00  0.00    +0.176 C 
ATOM      2  S   UNL     1     -38.364   5.686   9.751  1.00  0.00    +0.206 S 
ATOM      3  O   UNL     1     -37.366   6.342   8.940  1.00  0.00    -0.213 OA
ATOM      4  O   UNL     1     -39.484   6.393  10.325  1.00  0.00    -0.213 OA
ENDROOT
BRANCH   2   5
ATOM      5  N   UNL     1     -39.032   4.498   8.773  1.00  0.00    -0.229 NA
ATOM      6  H   UNL     1     -38.682   4.594   7.819  1.00  0.00    +0.137 HD
ATOM      7  H   UNL     1     -38.859   3.576   9.178  1.00  0.00    +0.137 HD
ENDBRANCH   2   5
TORSDOF 1
ENDMDL
MODEL 6
REMARK VINA RESULT:    -3.078     14.482     14.676
REMARK INTER + INTRA:          -3.168
REMARK INTER:                  -3.168
REMARK INTRA:                   0.000
REMARK UNBOUND:                 0.000
REMARK SMILES CS(N)(=O)=O
REMARK SMILES IDX 1 1 2 2 4 3 5 4 3 5
REMARK H PARENT 3 6 3 7
ROOT
ATOM      1  C   UNL     1     -24.616   2.947  10.530  1.00  0.00    +0.176 C 
ATOM      2  S   UNL     1     -24.643   1.281   9.907  1.00  0.00    +0.206 S 
ATOM      3  O   UNL     1     -25.643   1.168   8.873  1.00  0.00    -0.213 OA
ATOM      4  O   UNL     1     -24.558   0.352  11.009  1.00  0.00    -0.213 OA
ENDROOT
BRANCH   2   5
ATOM      5  N   UNL     1     -23.165   1.186   9.121  1.00  0.00    -0.229 NA
ATOM      6  H   UNL     1     -22.702   2.095   9.137  1.00  0.00    +0.137 HD
ATOM      7  H   UNL     1     -22.602   0.436   9.527  1.00  0.00    +0.137 HD
ENDBRANCH   2   5
TORSDOF 1
ENDMDL
MODEL 7
REMARK VINA RESULT:    -3.063     13.381     13.538
REMARK INTER + INTRA:          -3.152
REMARK INTER:                  -3.152
REMARK INTRA:                   0.000
REMARK UNBOUND:                 0.000
REMARK SMILES CS(N)(=O)=O
REMARK SMILES IDX 1 1 2 2 4 3 5 4 3 5
REMARK H PARENT 3 6 3 7
ROOT
ATOM      1  C   UNL     1     -26.021   1.047  11.257  1.00  0.00    +0.176 C 
ATOM      2  S   UNL     1     -25.525   0.804   9.566  1.00  0.00    +0.206 S 
ATOM      3  O   UNL     1     -25.816  -0.553   9.167  1.00  0.00    -0.213 OA
ATOM      4  O   UNL     1     -24.236   1.416   9.348  1.00  0.00    -0.213 OA
ENDROOT
BRANCH   2   5
ATOM      5  N   UNL     1     -26.627   1.764   8.744  1.00  0.00    -0.229 NA
ATOM      6  H   UNL     1     -27.579   1.512   9.014  1.00  0.00    +0.137 HD
ATOM      7  H   UNL     1     -26.410   2.751   8.895  1.00  0.00    +0.137 HD
ENDBRANCH   2   5
TORSDOF 1
ENDMDL
MODEL 8
REMARK VINA RESULT:    -3.049     13.854     13.880
REMARK INTER + INTRA:          -3.138
REMARK INTER:                  -3.138
REMARK INTRA:                   0.000
REMARK UNBOUND:                 0.000
REMARK SMILES CS(N)(=O)=O
REMARK SMILES IDX 1 1 2 2 4 3 5 4 3 5
REMARK H PARENT 3 6 3 7
ROOT
ATOM      1  C   UNL     1     -24.993   2.464  10.791  1.00  0.00    +0.176 C 
ATOM      2  S   UNL     1     -26.159   3.133   9.626  1.00  0.00    +0.206 S 
ATOM      3  O   UNL     1     -25.469   3.989   8.690  1.00  0.00    -0.213 OA
ATOM      4  O   UNL     1     -27.354   3.549  10.322  1.00  0.00    -0.213 OA
ENDROOT
BRANCH   2   5
ATOM      5  N   UNL     1     -26.594   1.769   8.755  1.00  0.00    -0.229 NA
ATOM      6  H   UNL     1     -27.556   1.507   8.974  1.00  0.00    +0.137 HD
ATOM      7  H   UNL     1     -26.434   1.926   7.757  1.00  0.00    +0.137 HD
ENDBRANCH   2   5
TORSDOF 1
ENDMDL
MODEL 9
REMARK VINA RESULT:    -3.003     14.233     14.430
REMARK INTER + INTRA:          -3.091
REMARK INTER:                  -3.091
REMARK INTRA:                   0.000
REMARK UNBOUND:                 0.000
REMARK SMILES CS(N)(=O)=O
REMARK SMILES IDX 1 1 2 2 4 3 5 4 3 5
REMARK H PARENT 3 6 3 7
ROOT
ATOM      1  C   UNL     1     -27.391   4.149   8.672  1.00  0.00    +0.176 C 
ATOM      2  S   UNL     1     -25.771   4.224   9.404  1.00  0.00    +0.206 S 
ATOM      3  O   UNL     1     -25.126   5.458   9.025  1.00  0.00    -0.213 OA
ATOM      4  O   UNL     1     -25.124   2.940   9.276  1.00  0.00    -0.213 OA
ENDROOT
BRANCH   2   5
ATOM      5  N   UNL     1     -26.138   4.386  11.031  1.00  0.00    -0.229 NA
ATOM      6  H   UNL     1     -25.748   3.602  11.557  1.00  0.00    +0.137 HD
ATOM      7  H   UNL     1     -25.825   5.298  11.370  1.00  0.00    +0.137 HD
ENDBRANCH   2   5
TORSDOF 1
ENDMDL
