REMARK SMILES Cc1ccc(C(=O)C(Cl)=NO)cc1
REMARK SMILES IDX 6 1 7 2 5 3 2 4 3 5 13 6 4 7 12 8 1 9 8 10 10 11 9 12 11 13
REMARK H PARENT 11 14
ROOT
ATOM      1  C   UNL     1       1.934  -0.728   1.170  1.00  0.00    +0.226 C 
ATOM      2  O   UNL     1       2.251  -1.801   1.671  1.00  0.00    -0.286 OA
ENDROOT
BRANCH   1   3
ATOM      3  C   UNL     1       0.593  -0.504   0.570  1.00  0.00    +0.025 A 
ATOM      4  C   UNL     1      -1.974  -0.171  -0.531  1.00  0.00    -0.051 A 
ATOM      5  C   UNL     1      -1.055   0.885  -0.539  1.00  0.00    +0.004 A 
ATOM      6  C   UNL     1      -1.606  -1.389   0.049  1.00  0.00    +0.004 A 
ATOM      7  C   UNL     1       0.224   0.722   0.003  1.00  0.00    +0.012 A 
ATOM      8  C   UNL     1      -0.330  -1.557   0.591  1.00  0.00    +0.012 A 
ATOM      9  C   UNL     1      -3.356   0.020  -1.085  1.00  0.00    +0.044 C 
ENDBRANCH   1   3
BRANCH   1  10
ATOM     10  C   UNL     1       2.926   0.399   1.210  1.00  0.00    +0.216 C 
ATOM     11  N   UNL     1       3.679   0.778   0.222  1.00  0.00    -0.072 NA
ATOM     12 Cl   UNL     1       3.010   1.239   2.698  1.00  0.00    -0.055 Cl
BRANCH  11  13
ATOM     13  O   UNL     1       3.466  -0.014  -0.915  1.00  0.00    -0.410 OA
ATOM     14  H   UNL     1       4.158   0.301  -1.529  1.00  0.00    +0.330 HD
ENDBRANCH  11  13
ENDBRANCH   1  10
TORSDOF 3
