MODEL 1
REMARK VINA RESULT:    -6.832      0.000      0.000
REMARK INTER + INTRA:          -9.685
REMARK INTER:                  -9.228
REMARK INTRA:                  -0.457
REMARK UNBOUND:                -0.457
REMARK SMILES CCCCOP(=O)(N1CCOCC1)N1CCOCC1
REMARK SMILES IDX 4 1 3 2 2 3 1 4 5 5 6 6 7 7 8 8 9 9 13 10 10 11 12 12 11 13
REMARK SMILES IDX 14 14 15 15 19 16 16 17 18 18 17 19
REMARK H PARENT
ROOT
ATOM      1  C   UNL     1     -25.646   5.075   9.291  1.00  0.00    +0.171 C 
ENDROOT
BRANCH   1   2
ATOM      2  C   UNL     1     -26.360   5.693   8.093  1.00  0.00    +0.029 C 
BRANCH   2   3
ATOM      3  C   UNL     1     -25.392   6.041   6.960  1.00  0.00    -0.001 C 
ATOM      4  C   UNL     1     -25.019   7.515   6.982  1.00  0.00    +0.004 C 
ENDBRANCH   2   3
ENDBRANCH   1   2
BRANCH   1   5
ATOM      5  O   UNL     1     -26.538   4.217   9.981  1.00  0.00    -0.306 OA
BRANCH   5   6
ATOM      6  P   UNL     1     -25.919   3.238  11.108  1.00  0.00    +0.346 P 
ATOM      7  O   UNL     1     -25.541   3.996  12.347  1.00  0.00    -0.255 OA
BRANCH   6   8
ATOM      8  N   UNL     1     -27.040   2.063  11.324  1.00  0.00    -0.214 NA
ATOM      9  C   UNL     1     -27.140   1.404  12.632  1.00  0.00    +0.124 C 
ATOM     10  C   UNL     1     -28.359   2.213  10.695  1.00  0.00    +0.124 C 
ATOM     11  C   UNL     1     -28.497   1.626  13.312  1.00  0.00    +0.176 C 
ATOM     12  C   UNL     1     -29.343   1.122  11.133  1.00  0.00    +0.176 C 
ATOM     13  O   UNL     1     -29.602   1.137  12.541  1.00  0.00    -0.379 OA
ENDBRANCH   6   8
BRANCH   6  14
ATOM     14  N   UNL     1     -24.643   2.499  10.371  1.00  0.00    -0.214 NA
ATOM     15  C   UNL     1     -23.372   2.534  11.121  1.00  0.00    +0.124 C 
ATOM     16  C   UNL     1     -24.890   1.141   9.850  1.00  0.00    +0.124 C 
ATOM     17  C   UNL     1     -22.374   1.465  10.665  1.00  0.00    +0.176 C 
ATOM     18  C   UNL     1     -24.298   0.046  10.745  1.00  0.00    +0.176 C 
ATOM     19  O   UNL     1     -22.870   0.132  10.850  1.00  0.00    -0.379 OA
ENDBRANCH   6  14
ENDBRANCH   5   6
ENDBRANCH   1   5
TORSDOF 6
ENDMDL
MODEL 2
REMARK VINA RESULT:    -6.505      1.187      4.612
REMARK INTER + INTRA:          -9.244
REMARK INTER:                  -8.599
REMARK INTRA:                  -0.645
REMARK UNBOUND:                -0.457
REMARK SMILES CCCCOP(=O)(N1CCOCC1)N1CCOCC1
REMARK SMILES IDX 4 1 3 2 2 3 1 4 5 5 6 6 7 7 8 8 9 9 13 10 10 11 12 12 11 13
REMARK SMILES IDX 14 14 15 15 19 16 16 17 18 18 17 19
REMARK H PARENT
ROOT
ATOM      1  C   UNL     1     -26.624   4.236   9.582  1.00  0.00    +0.171 C 
ENDROOT
BRANCH   1   2
ATOM      2  C   UNL     1     -25.442   5.034   9.041  1.00  0.00    +0.029 C 
BRANCH   2   3
ATOM      3  C   UNL     1     -25.689   5.543   7.619  1.00  0.00    -0.001 C 
ATOM      4  C   UNL     1     -25.077   6.919   7.408  1.00  0.00    +0.004 C 
ENDBRANCH   2   3
ENDBRANCH   1   2
BRANCH   1   5
ATOM      5  O   UNL     1     -26.170   3.336  10.577  1.00  0.00    -0.306 OA
BRANCH   5   6
ATOM      6  P   UNL     1     -26.011   1.781  10.167  1.00  0.00    +0.346 P 
ATOM      7  O   UNL     1     -26.297   1.565   8.709  1.00  0.00    -0.255 OA
BRANCH   6   8
ATOM      8  N   UNL     1     -24.505   1.356  10.654  1.00  0.00    -0.214 NA
ATOM      9  C   UNL     1     -24.243  -0.038  11.030  1.00  0.00    +0.124 C 
ATOM     10  C   UNL     1     -23.346   1.961   9.985  1.00  0.00    +0.124 C 
ATOM     11  C   UNL     1     -23.208  -0.717  10.125  1.00  0.00    +0.176 C 
ATOM     12  C   UNL     1     -22.020   1.335  10.433  1.00  0.00    +0.176 C 
ATOM     13  O   UNL     1     -21.933  -0.063  10.133  1.00  0.00    -0.379 OA
ENDBRANCH   6   8
BRANCH   6  14
ATOM     14  N   UNL     1     -27.041   0.972  11.169  1.00  0.00    -0.214 NA
ATOM     15  C   UNL     1     -27.344   1.648  12.445  1.00  0.00    +0.124 C 
ATOM     16  C   UNL     1     -28.282   0.464  10.554  1.00  0.00    +0.124 C 
ATOM     17  C   UNL     1     -28.626   1.135  13.109  1.00  0.00    +0.176 C 
ATOM     18  C   UNL     1     -29.506   1.323  10.893  1.00  0.00    +0.176 C 
ATOM     19  O   UNL     1     -29.790   1.346  12.299  1.00  0.00    -0.379 OA
ENDBRANCH   6  14
ENDBRANCH   5   6
ENDBRANCH   1   5
TORSDOF 6
ENDMDL
MODEL 3
REMARK VINA RESULT:    -6.449      7.518      9.266
REMARK INTER + INTRA:          -9.168
REMARK INTER:                  -8.643
REMARK INTRA:                  -0.524
REMARK UNBOUND:                -0.457
REMARK SMILES CCCCOP(=O)(N1CCOCC1)N1CCOCC1
REMARK SMILES IDX 4 1 3 2 2 3 1 4 5 5 6 6 7 7 8 8 9 9 13 10 10 11 12 12 11 13
REMARK SMILES IDX 14 14 15 15 19 16 16 17 18 18 17 19
REMARK H PARENT
ROOT
ATOM      1  C   UNL     1     -34.494   6.060   6.811  1.00  0.00    +0.171 C 
ENDROOT
BRANCH   1   2
ATOM      2  C   UNL     1     -33.724   5.833   5.514  1.00  0.00    +0.029 C 
BRANCH   2   3
ATOM      3  C   UNL     1     -32.668   6.914   5.272  1.00  0.00    -0.001 C 
ATOM      4  C   UNL     1     -32.058   7.397   6.579  1.00  0.00    +0.004 C 
ENDBRANCH   2   3
ENDBRANCH   1   2
BRANCH   1   5
ATOM      5  O   UNL     1     -34.869   4.810   7.362  1.00  0.00    -0.306 OA
BRANCH   5   6
ATOM      6  P   UNL     1     -34.412   4.490   8.879  1.00  0.00    +0.346 P 
ATOM      7  O   UNL     1     -33.353   5.445   9.347  1.00  0.00    -0.255 OA
BRANCH   6   8
ATOM      8  N   UNL     1     -35.795   4.495   9.758  1.00  0.00    -0.214 NA
ATOM      9  C   UNL     1     -35.761   4.994  11.139  1.00  0.00    +0.124 C 
ATOM     10  C   UNL     1     -37.059   4.837   9.093  1.00  0.00    +0.124 C 
ATOM     11  C   UNL     1     -36.640   6.232  11.349  1.00  0.00    +0.176 C 
ATOM     12  C   UNL     1     -38.224   4.966  10.083  1.00  0.00    +0.176 C 
ATOM     13  O   UNL     1     -38.022   6.003  11.049  1.00  0.00    -0.379 OA
ENDBRANCH   6   8
BRANCH   6  14
ATOM     14  N   UNL     1     -33.916   2.918   8.848  1.00  0.00    -0.214 NA
ATOM     15  C   UNL     1     -32.670   2.634   9.585  1.00  0.00    +0.124 C 
ATOM     16  C   UNL     1     -34.940   1.906   9.169  1.00  0.00    +0.124 C 
ATOM     17  C   UNL     1     -32.504   1.152   9.939  1.00  0.00    +0.176 C 
ATOM     18  C   UNL     1     -34.797   1.347  10.590  1.00  0.00    +0.176 C 
ATOM     19  O   UNL     1     -33.551   0.667  10.791  1.00  0.00    -0.379 OA
ENDBRANCH   6  14
ENDBRANCH   5   6
ENDBRANCH   1   5
TORSDOF 6
ENDMDL
MODEL 4
REMARK VINA RESULT:    -6.356      7.431      9.979
REMARK INTER + INTRA:          -9.043
REMARK INTER:                  -8.517
REMARK INTRA:                  -0.525
REMARK UNBOUND:                -0.457
REMARK SMILES CCCCOP(=O)(N1CCOCC1)N1CCOCC1
REMARK SMILES IDX 4 1 3 2 2 3 1 4 5 5 6 6 7 7 8 8 9 9 13 10 10 11 12 12 11 13
REMARK SMILES IDX 14 14 15 15 19 16 16 17 18 18 17 19
REMARK H PARENT
ROOT
ATOM      1  C   UNL     1     -34.436   4.782   7.105  1.00  0.00    +0.171 C 
ENDROOT
BRANCH   1   2
ATOM      2  C   UNL     1     -34.328   6.214   6.593  1.00  0.00    +0.029 C 
BRANCH   2   3
ATOM      3  C   UNL     1     -33.715   6.283   5.193  1.00  0.00    -0.001 C 
ATOM      4  C   UNL     1     -32.530   7.235   5.152  1.00  0.00    +0.004 C 
ENDBRANCH   2   3
ENDBRANCH   1   2
BRANCH   1   5
ATOM      5  O   UNL     1     -34.421   4.784   8.522  1.00  0.00    -0.306 OA
BRANCH   5   6
ATOM      6  P   UNL     1     -35.076   3.517   9.283  1.00  0.00    +0.346 P 
ATOM      7  O   UNL     1     -35.771   2.598   8.321  1.00  0.00    -0.255 OA
BRANCH   6   8
ATOM      8  N   UNL     1     -33.849   2.840  10.132  1.00  0.00    -0.214 NA
ATOM      9  C   UNL     1     -34.117   1.652  10.950  1.00  0.00    +0.124 C 
ATOM     10  C   UNL     1     -32.511   2.787   9.528  1.00  0.00    +0.124 C 
ATOM     11  C   UNL     1     -33.331   0.418  10.489  1.00  0.00    +0.176 C 
ATOM     12  C   UNL     1     -31.521   1.975  10.371  1.00  0.00    +0.176 C 
ATOM     13  O   UNL     1     -31.912   0.606  10.525  1.00  0.00    -0.379 OA
ENDBRANCH   6   8
BRANCH   6  14
ATOM     14  N   UNL     1     -36.081   4.175  10.411  1.00  0.00    -0.214 NA
ATOM     15  C   UNL     1     -35.589   5.408  11.055  1.00  0.00    +0.124 C 
ATOM     16  C   UNL     1     -37.492   4.336  10.010  1.00  0.00    +0.124 C 
ATOM     17  C   UNL     1     -36.704   6.232  11.709  1.00  0.00    +0.176 C 
ATOM     18  C   UNL     1     -37.845   5.786   9.654  1.00  0.00    +0.176 C 
ATOM     19  O   UNL     1     -37.686   6.680  10.765  1.00  0.00    -0.379 OA
ENDBRANCH   6  14
ENDBRANCH   5   6
ENDBRANCH   1   5
TORSDOF 6
ENDMDL
MODEL 5
REMARK VINA RESULT:    -6.139      7.531     10.209
REMARK INTER + INTRA:          -8.749
REMARK INTER:                  -8.159
REMARK INTRA:                  -0.590
REMARK UNBOUND:                -0.457
REMARK SMILES CCCCOP(=O)(N1CCOCC1)N1CCOCC1
REMARK SMILES IDX 4 1 3 2 2 3 1 4 5 5 6 6 7 7 8 8 9 9 13 10 10 11 12 12 11 13
REMARK SMILES IDX 14 14 15 15 19 16 16 17 18 18 17 19
REMARK H PARENT
ROOT
ATOM      1  C   UNL     1     -34.215   2.026  11.117  1.00  0.00    +0.171 C 
ENDROOT
BRANCH   1   2
ATOM      2  C   UNL     1     -33.191   1.710  12.202  1.00  0.00    +0.029 C 
BRANCH   2   3
ATOM      3  C   UNL     1     -31.949   1.015  11.640  1.00  0.00    -0.001 C 
ATOM      4  C   UNL     1     -32.288   0.178  10.416  1.00  0.00    +0.004 C 
ENDBRANCH   2   3
ENDBRANCH   1   2
BRANCH   1   5
ATOM      5  O   UNL     1     -33.946   3.307  10.573  1.00  0.00    -0.306 OA
BRANCH   5   6
ATOM      6  P   UNL     1     -34.932   3.854   9.415  1.00  0.00    +0.346 P 
ATOM      7  O   UNL     1     -35.116   2.838   8.325  1.00  0.00    -0.255 OA
BRANCH   6   8
ATOM      8  N   UNL     1     -36.304   4.302  10.190  1.00  0.00    -0.214 NA
ATOM      9  C   UNL     1     -36.257   5.428  11.130  1.00  0.00    +0.124 C 
ATOM     10  C   UNL     1     -37.578   4.262   9.461  1.00  0.00    +0.124 C 
ATOM     11  C   UNL     1     -37.143   6.604  10.699  1.00  0.00    +0.176 C 
ATOM     12  C   UNL     1     -38.732   4.872  10.266  1.00  0.00    +0.176 C 
ATOM     13  O   UNL     1     -38.526   6.255  10.575  1.00  0.00    -0.379 OA
ENDBRANCH   6   8
BRANCH   6  14
ATOM     14  N   UNL     1     -34.240   5.258   8.898  1.00  0.00    -0.214 NA
ATOM     15  C   UNL     1     -32.768   5.234   8.788  1.00  0.00    +0.124 C 
ATOM     16  C   UNL     1     -34.832   5.870   7.694  1.00  0.00    +0.124 C 
ATOM     17  C   UNL     1     -32.215   6.337   7.878  1.00  0.00    +0.176 C 
ATOM     18  C   UNL     1     -33.989   5.637   6.435  1.00  0.00    +0.176 C 
ATOM     19  O   UNL     1     -32.684   6.225   6.528  1.00  0.00    -0.379 OA
ENDBRANCH   6  14
ENDBRANCH   5   6
ENDBRANCH   1   5
TORSDOF 6
ENDMDL
MODEL 6
REMARK VINA RESULT:    -6.101      7.880     11.026
REMARK INTER + INTRA:          -8.698
REMARK INTER:                  -8.077
REMARK INTRA:                  -0.621
REMARK UNBOUND:                -0.457
REMARK SMILES CCCCOP(=O)(N1CCOCC1)N1CCOCC1
REMARK SMILES IDX 4 1 3 2 2 3 1 4 5 5 6 6 7 7 8 8 9 9 13 10 10 11 12 12 11 13
REMARK SMILES IDX 14 14 15 15 19 16 16 17 18 18 17 19
REMARK H PARENT
ROOT
ATOM      1  C   UNL     1     -33.136   2.650   9.383  1.00  0.00    +0.171 C 
ENDROOT
BRANCH   1   2
ATOM      2  C   UNL     1     -33.538   1.475  10.269  1.00  0.00    +0.029 C 
BRANCH   2   3
ATOM      3  C   UNL     1     -33.319   1.768  11.754  1.00  0.00    -0.001 C 
ATOM      4  C   UNL     1     -32.153   0.968  12.312  1.00  0.00    +0.004 C 
ENDBRANCH   2   3
ENDBRANCH   1   2
BRANCH   1   5
ATOM      5  O   UNL     1     -34.282   3.157   8.723  1.00  0.00    -0.306 OA
BRANCH   5   6
ATOM      6  P   UNL     1     -34.695   4.693   9.007  1.00  0.00    +0.346 P 
ATOM      7  O   UNL     1     -33.883   5.283  10.123  1.00  0.00    -0.255 OA
BRANCH   6   8
ATOM      8  N   UNL     1     -34.553   5.454   7.562  1.00  0.00    -0.214 NA
ATOM      9  C   UNL     1     -33.894   6.765   7.508  1.00  0.00    +0.124 C 
ATOM     10  C   UNL     1     -34.263   4.656   6.364  1.00  0.00    +0.124 C 
ATOM     11  C   UNL     1     -32.619   6.758   6.656  1.00  0.00    +0.176 C 
ATOM     12  C   UNL     1     -33.990   5.528   5.132  1.00  0.00    +0.176 C 
ATOM     13  O   UNL     1     -32.850   6.380   5.294  1.00  0.00    -0.379 OA
ENDBRANCH   6   8
BRANCH   6  14
ATOM     14  N   UNL     1     -36.313   4.646   9.321  1.00  0.00    -0.214 NA
ATOM     15  C   UNL     1     -36.695   3.950  10.565  1.00  0.00    +0.124 C 
ATOM     16  C   UNL     1     -37.035   5.927   9.210  1.00  0.00    +0.124 C 
ATOM     17  C   UNL     1     -38.094   4.331  11.063  1.00  0.00    +0.176 C 
ATOM     18  C   UNL     1     -37.348   6.551  10.576  1.00  0.00    +0.176 C 
ATOM     19  O   UNL     1     -38.208   5.726  11.374  1.00  0.00    -0.379 OA
ENDBRANCH   6  14
ENDBRANCH   5   6
ENDBRANCH   1   5
TORSDOF 6
ENDMDL
MODEL 7
REMARK VINA RESULT:    -5.638      7.337      9.026
REMARK INTER + INTRA:          -8.072
REMARK INTER:                  -7.628
REMARK INTRA:                  -0.445
REMARK UNBOUND:                -0.457
REMARK SMILES CCCCOP(=O)(N1CCOCC1)N1CCOCC1
REMARK SMILES IDX 4 1 3 2 2 3 1 4 5 5 6 6 7 7 8 8 9 9 13 10 10 11 12 12 11 13
REMARK SMILES IDX 14 14 15 15 19 16 16 17 18 18 17 19
REMARK H PARENT
ROOT
ATOM      1  C   UNL     1     -32.122   5.820   9.569  1.00  0.00    +0.171 C 
ENDROOT
BRANCH   1   2
ATOM      2  C   UNL     1     -31.275   6.208   8.362  1.00  0.00    +0.029 C 
BRANCH   2   3
ATOM      3  C   UNL     1     -31.795   7.471   7.672  1.00  0.00    -0.001 C 
ATOM      4  C   UNL     1     -30.654   8.314   7.124  1.00  0.00    +0.004 C 
ENDBRANCH   2   3
ENDBRANCH   1   2
BRANCH   1   5
ATOM      5  O   UNL     1     -33.305   5.177   9.128  1.00  0.00    -0.306 OA
BRANCH   5   6
ATOM      6  P   UNL     1     -34.364   4.698  10.252  1.00  0.00    +0.346 P 
ATOM      7  O   UNL     1     -33.980   5.196  11.616  1.00  0.00    -0.255 OA
BRANCH   6   8
ATOM      8  N   UNL     1     -35.827   5.201   9.712  1.00  0.00    -0.214 NA
ATOM      9  C   UNL     1     -36.666   4.268   8.951  1.00  0.00    +0.124 C 
ATOM     10  C   UNL     1     -36.636   6.080  10.567  1.00  0.00    +0.124 C 
ATOM     11  C   UNL     1     -37.995   3.953   9.650  1.00  0.00    +0.176 C 
ATOM     12  C   UNL     1     -38.040   6.318   9.997  1.00  0.00    +0.176 C 
ATOM     13  O   UNL     1     -38.804   5.113   9.876  1.00  0.00    -0.379 OA
ENDBRANCH   6   8
BRANCH   6  14
ATOM     14  N   UNL     1     -34.392   3.055  10.133  1.00  0.00    -0.214 NA
ATOM     15  C   UNL     1     -33.180   2.441   9.557  1.00  0.00    +0.124 C 
ATOM     16  C   UNL     1     -34.810   2.322  11.343  1.00  0.00    +0.124 C 
ATOM     17  C   UNL     1     -33.038   0.953   9.898  1.00  0.00    +0.176 C 
ATOM     18  C   UNL     1     -33.628   1.695  12.094  1.00  0.00    +0.176 C 
ATOM     19  O   UNL     1     -32.933   0.717  11.309  1.00  0.00    -0.379 OA
ENDBRANCH   6  14
ENDBRANCH   5   6
ENDBRANCH   1   5
TORSDOF 6
ENDMDL
MODEL 8
REMARK VINA RESULT:    -5.364      6.150      9.275
REMARK INTER + INTRA:          -7.702
REMARK INTER:                  -7.897
REMARK INTRA:                   0.195
REMARK UNBOUND:                -0.457
REMARK SMILES CCCCOP(=O)(N1CCOCC1)N1CCOCC1
REMARK SMILES IDX 4 1 3 2 2 3 1 4 5 5 6 6 7 7 8 8 9 9 13 10 10 11 12 12 11 13
REMARK SMILES IDX 14 14 15 15 19 16 16 17 18 18 17 19
REMARK H PARENT
ROOT
ATOM      1  C   UNL     1     -30.468   8.293   6.417  1.00  0.00    +0.171 C 
ENDROOT
BRANCH   1   2
ATOM      2  C   UNL     1     -31.490   7.750   7.410  1.00  0.00    +0.029 C 
BRANCH   2   3
ATOM      3  C   UNL     1     -32.771   7.276   6.719  1.00  0.00    -0.001 C 
ATOM      4  C   UNL     1     -32.550   7.056   5.231  1.00  0.00    +0.004 C 
ENDBRANCH   2   3
ENDBRANCH   1   2
BRANCH   1   5
ATOM      5  O   UNL     1     -29.352   8.809   7.123  1.00  0.00    -0.306 OA
BRANCH   5   6
ATOM      6  P   UNL     1     -27.978   9.028   6.300  1.00  0.00    +0.346 P 
ATOM      7  O   UNL     1     -28.023   8.343   4.964  1.00  0.00    -0.255 OA
BRANCH   6   8
ATOM      8  N   UNL     1     -27.760  10.651   6.245  1.00  0.00    -0.214 NA
ATOM      9  C   UNL     1     -26.547  11.187   5.617  1.00  0.00    +0.124 C 
ATOM     10  C   UNL     1     -28.921  11.517   6.000  1.00  0.00    +0.124 C 
ATOM     11  C   UNL     1     -26.843  12.053   4.386  1.00  0.00    +0.176 C 
ATOM     12  C   UNL     1     -28.525  12.985   5.807  1.00  0.00    +0.176 C 
ATOM     13  O   UNL     1     -27.667  13.187   4.678  1.00  0.00    -0.379 OA
ENDBRANCH   6   8
BRANCH   6  14
ATOM     14  N   UNL     1     -26.794   8.458   7.295  1.00  0.00    -0.214 NA
ATOM     15  C   UNL     1     -26.838   7.007   7.564  1.00  0.00    +0.124 C 
ATOM     16  C   UNL     1     -25.417   8.875   6.973  1.00  0.00    +0.124 C 
ATOM     17  C   UNL     1     -25.503   6.447   8.067  1.00  0.00    +0.176 C 
ATOM     18  C   UNL     1     -24.607   7.769   6.286  1.00  0.00    +0.176 C 
ATOM     19  O   UNL     1     -24.442   6.611   7.116  1.00  0.00    -0.379 OA
ENDBRANCH   6  14
ENDBRANCH   5   6
ENDBRANCH   1   5
TORSDOF 6
ENDMDL
MODEL 9
REMARK VINA RESULT:    -5.146      3.377      6.735
REMARK INTER + INTRA:          -7.407
REMARK INTER:                  -6.861
REMARK INTRA:                  -0.546
REMARK UNBOUND:                -0.457
REMARK SMILES CCCCOP(=O)(N1CCOCC1)N1CCOCC1
REMARK SMILES IDX 4 1 3 2 2 3 1 4 5 5 6 6 7 7 8 8 9 9 13 10 10 11 12 12 11 13
REMARK SMILES IDX 14 14 15 15 19 16 16 17 18 18 17 19
REMARK H PARENT
ROOT
ATOM      1  C   UNL     1     -31.899   1.725  11.333  1.00  0.00    +0.171 C 
ENDROOT
BRANCH   1   2
ATOM      2  C   UNL     1     -33.400   1.805  11.590  1.00  0.00    +0.029 C 
BRANCH   2   3
ATOM      3  C   UNL     1     -34.215   1.157  10.468  1.00  0.00    -0.001 C 
ATOM      4  C   UNL     1     -34.315   2.070   9.256  1.00  0.00    +0.004 C 
ENDBRANCH   2   3
ENDBRANCH   1   2
BRANCH   1   5
ATOM      5  O   UNL     1     -31.290   0.930  12.335  1.00  0.00    -0.306 OA
BRANCH   5   6
ATOM      6  P   UNL     1     -29.834   0.305  12.018  1.00  0.00    +0.346 P 
ATOM      7  O   UNL     1     -29.896  -0.689  10.895  1.00  0.00    -0.255 OA
BRANCH   6   8
ATOM      8  N   UNL     1     -28.857   1.594  11.754  1.00  0.00    -0.214 NA
ATOM      9  C   UNL     1     -27.908   1.995  12.799  1.00  0.00    +0.124 C 
ATOM     10  C   UNL     1     -28.299   1.801  10.411  1.00  0.00    +0.124 C 
ATOM     11  C   UNL     1     -26.445   1.888  12.352  1.00  0.00    +0.176 C 
ATOM     12  C   UNL     1     -27.276   2.942  10.373  1.00  0.00    +0.176 C 
ATOM     13  O   UNL     1     -26.140   2.701  11.212  1.00  0.00    -0.379 OA
ENDBRANCH   6   8
BRANCH   6  14
ATOM     14  N   UNL     1     -29.331  -0.343  13.447  1.00  0.00    -0.214 NA
ATOM     15  C   UNL     1     -30.352  -0.397  14.511  1.00  0.00    +0.124 C 
ATOM     16  C   UNL     1     -28.615  -1.630  13.361  1.00  0.00    +0.124 C 
ATOM     17  C   UNL     1     -30.018  -1.407  15.615  1.00  0.00    +0.176 C 
ATOM     18  C   UNL     1     -29.490  -2.824  13.762  1.00  0.00    +0.176 C 
ATOM     19  O   UNL     1     -29.929  -2.752  15.125  1.00  0.00    -0.379 OA
ENDBRANCH   6  14
ENDBRANCH   5   6
ENDBRANCH   1   5
TORSDOF 6
ENDMDL
