REMARK SMILES CCC(=O)CC(C)(C)C
REMARK SMILES IDX 3 1 4 2 2 3 1 4 5 5 6 6 7 7 8 8 9 9
REMARK H PARENT
ROOT
ATOM      1  C   UNL     1       1.158  -0.708   0.173  1.00  0.00    +0.133 C 
ATOM      2  O   UNL     1       0.917  -1.265   1.242  1.00  0.00    -0.300 OA
ENDROOT
BRANCH   1   3
ATOM      3  C   UNL     1       2.568  -0.705  -0.385  1.00  0.00    +0.072 C 
ATOM      4  C   UNL     1       3.319   0.537   0.049  1.00  0.00    +0.012 C 
ENDBRANCH   1   3
BRANCH   1   5
ATOM      5  C   UNL     1       0.107   0.032  -0.650  1.00  0.00    +0.081 C 
BRANCH   5   6
ATOM      6  C   UNL     1      -1.342   0.064  -0.107  1.00  0.00    -0.031 C 
ATOM      7  C   UNL     1      -1.933  -1.351   0.008  1.00  0.00    +0.011 C 
ATOM      8  C   UNL     1      -2.203   0.858  -1.113  1.00  0.00    +0.011 C 
ATOM      9  C   UNL     1      -1.420   0.780   1.252  1.00  0.00    +0.011 C 
ENDBRANCH   5   6
ENDBRANCH   1   5
TORSDOF 3
