REMARK SMILES CCCCOC(=O)CCC(=O)OCCCC
REMARK SMILES IDX 8 1 6 2 7 3 5 4 4 5 3 6 2 7 1 8 9 9 10 10 11 11 12 12 13 13
REMARK SMILES IDX 14 14 15 15 16 16
REMARK H PARENT
ROOT
ATOM      1  C   UNL     1      -0.618  -0.327   0.224  1.00  0.00    +0.134 C 
ENDROOT
BRANCH   1   2
ATOM      2  C   UNL     1      -1.735   0.610   0.599  1.00  0.00    +0.306 C 
ATOM      3  O   UNL     1      -1.672   1.831   0.562  1.00  0.00    -0.252 OA
BRANCH   2   4
ATOM      4  O   UNL     1      -2.825  -0.112   0.982  1.00  0.00    -0.466 OA
BRANCH   4   5
ATOM      5  C   UNL     1      -3.980   0.649   1.365  1.00  0.00    +0.233 C 
BRANCH   5   6
ATOM      6  C   UNL     1      -4.818   1.037   0.148  1.00  0.00    +0.041 C 
BRANCH   6   7
ATOM      7  C   UNL     1      -5.226  -0.139  -0.744  1.00  0.00    +0.000 C 
ATOM      8  C   UNL     1      -6.113  -1.153  -0.039  1.00  0.00    +0.004 C 
ENDBRANCH   6   7
ENDBRANCH   5   6
ENDBRANCH   4   5
ENDBRANCH   2   4
ENDBRANCH   1   2
BRANCH   1   9
ATOM      9  C   UNL     1       0.618   0.442  -0.224  1.00  0.00    +0.134 C 
BRANCH   9  10
ATOM     10  C   UNL     1       1.735  -0.496  -0.599  1.00  0.00    +0.306 C 
ATOM     11  O   UNL     1       1.672  -1.716  -0.562  1.00  0.00    -0.252 OA
BRANCH  10  12
ATOM     12  O   UNL     1       2.825   0.226  -0.982  1.00  0.00    -0.466 OA
BRANCH  12  13
ATOM     13  C   UNL     1       3.980  -0.534  -1.365  1.00  0.00    +0.233 C 
BRANCH  13  14
ATOM     14  C   UNL     1       4.818  -0.923  -0.148  1.00  0.00    +0.041 C 
BRANCH  14  15
ATOM     15  C   UNL     1       5.226   0.253   0.744  1.00  0.00    +0.000 C 
ATOM     16  C   UNL     1       6.113   1.267   0.039  1.00  0.00    +0.004 C 
ENDBRANCH  14  15
ENDBRANCH  13  14
ENDBRANCH  12  13
ENDBRANCH  10  12
ENDBRANCH   9  10
ENDBRANCH   1   9
TORSDOF 11
