MODEL 1
REMARK VINA RESULT:    -7.262      0.000      0.000
REMARK INTER + INTRA:         -18.594
REMARK INTER:                 -16.177
REMARK INTRA:                  -2.417
REMARK UNBOUND:                -2.417
REMARK SMILES CC(=O)OC[C@@H]1O[C@@H](O[C@@]2(COC(C)=O)O[C@H](COC(C)=O)[C@H](OC(C)=O)[C@@H]2OC(C)=O)[C@H](OC(C)=O)[C@H](OC(C)=O)[C@H]1OC(C)=O
REMARK SMILES IDX 9 1 8 2 6 3 7 4 43 5 38 6 33 7 5 8 4 9 2 10 3 11 1 12 44 13
REMARK SMILES IDX 45 14 47 15 46 16 39 17 40 18 42 19 41 20 34 21 35 22 37 23
REMARK SMILES IDX 36 24 10 25 16 26 28 27 17 28 23 29 11 30 12 31 13 32 15 33
REMARK SMILES IDX 14 34 29 35 30 36 32 37 31 38 18 39 19 40 20 41 22 42 21 43
REMARK SMILES IDX 24 44 25 45 27 46 26 47
REMARK H PARENT
ROOT
ATOM      1  O   UNL     1     -29.532   1.254  10.705  1.00  0.00    -0.310 OA
ENDROOT
BRANCH   1   2
ATOM      2  C   UNL     1     -28.658   1.326  11.825  1.00  0.00    +0.299 C 
ATOM      3  C   UNL     1     -26.883   2.543  10.745  1.00  0.00    +0.204 C 
ATOM      4  O   UNL     1     -27.846   2.493  11.803  1.00  0.00    -0.338 OA
ATOM      5  C   UNL     1     -25.951   1.316  10.737  1.00  0.00    +0.253 C 
ATOM      6  C   UNL     1     -26.790   0.027  10.747  1.00  0.00    +0.266 C 
ATOM      7  C   UNL     1     -27.806   0.050  11.896  1.00  0.00    +0.277 C 
BRANCH   3   8
ATOM      8  C   UNL     1     -26.059   3.834  10.925  1.00  0.00    +0.269 C 
BRANCH   8   9
ATOM      9  O   UNL     1     -26.590   4.898  10.110  1.00  0.00    -0.463 OA
BRANCH   9  10
ATOM     10  C   UNL     1     -26.061   5.042   8.868  1.00  0.00    +0.302 C 
ATOM     11  O   UNL     1     -25.087   4.451   8.418  1.00  0.00    -0.253 OA
ATOM     12  C   UNL     1     -26.878   6.016   8.075  1.00  0.00    +0.139 C 
ENDBRANCH   9  10
ENDBRANCH   8   9
ENDBRANCH   3   8
BRANCH   5  13
ATOM     13  O   UNL     1     -25.162   1.383   9.523  1.00  0.00    -0.455 OA
BRANCH  13  14
ATOM     14  C   UNL     1     -23.811   1.351   9.653  1.00  0.00    +0.303 C 
ATOM     15  O   UNL     1     -23.005   1.442   8.739  1.00  0.00    -0.253 OA
ATOM     16  C   UNL     1     -23.440   1.190  11.096  1.00  0.00    +0.139 C 
ENDBRANCH  13  14
ENDBRANCH   5  13
BRANCH   6  17
ATOM     17  O   UNL     1     -25.937  -1.123  10.952  1.00  0.00    -0.454 OA
BRANCH  17  18
ATOM     18  C   UNL     1     -25.810  -2.012   9.936  1.00  0.00    +0.303 C 
ATOM     19  O   UNL     1     -25.783  -1.737   8.745  1.00  0.00    -0.253 OA
ATOM     20  C   UNL     1     -25.710  -3.399  10.490  1.00  0.00    +0.139 C 
ENDBRANCH  17  18
ENDBRANCH   6  17
BRANCH   7  21
ATOM     21  O   UNL     1     -27.121   0.052  13.173  1.00  0.00    -0.453 OA
BRANCH  21  22
ATOM     22  C   UNL     1     -27.526  -0.879  14.078  1.00  0.00    +0.303 C 
ATOM     23  O   UNL     1     -27.612  -0.712  15.285  1.00  0.00    -0.253 OA
ATOM     24  C   UNL     1     -27.841  -2.164  13.376  1.00  0.00    +0.139 C 
ENDBRANCH  21  22
ENDBRANCH   7  21
ENDBRANCH   1   2
BRANCH   1  25
ATOM     25  C   UNL     1     -30.911   1.589  10.942  1.00  0.00    +0.248 C 
ATOM     26  O   UNL     1     -31.048   2.989  10.562  1.00  0.00    -0.333 OA
ATOM     27  C   UNL     1     -31.853   0.825   9.969  1.00  0.00    +0.283 C 
ATOM     28  C   UNL     1     -31.960   3.091   9.445  1.00  0.00    +0.204 C 
ATOM     29  C   UNL     1     -32.873   1.880   9.570  1.00  0.00    +0.255 C 
BRANCH  25  30
ATOM     30  C   UNL     1     -31.301   1.445  12.443  1.00  0.00    +0.303 C 
BRANCH  30  31
ATOM     31  O   UNL     1     -31.490   0.068  12.840  1.00  0.00    -0.460 OA
BRANCH  31  32
ATOM     32  C   UNL     1     -30.969  -0.288  14.043  1.00  0.00    +0.302 C 
ATOM     33  O   UNL     1     -30.874  -1.427  14.472  1.00  0.00    -0.253 OA
ATOM     34  C   UNL     1     -30.581   0.936  14.812  1.00  0.00    +0.139 C 
ENDBRANCH  31  32
ENDBRANCH  30  31
ENDBRANCH  25  30
BRANCH  27  35
ATOM     35  O   UNL     1     -32.480  -0.331  10.555  1.00  0.00    -0.453 OA
BRANCH  35  36
ATOM     36  C   UNL     1     -31.754  -1.479  10.523  1.00  0.00    +0.303 C 
ATOM     37  O   UNL     1     -30.656  -1.601   9.996  1.00  0.00    -0.253 OA
ATOM     38  C   UNL     1     -32.487  -2.577  11.234  1.00  0.00    +0.139 C 
ENDBRANCH  35  36
ENDBRANCH  27  35
BRANCH  28  39
ATOM     39  C   UNL     1     -32.651   4.451   9.480  1.00  0.00    +0.269 C 
BRANCH  39  40
ATOM     40  O   UNL     1     -32.314   5.157   8.272  1.00  0.00    -0.463 OA
BRANCH  40  41
ATOM     41  C   UNL     1     -31.386   6.136   8.427  1.00  0.00    +0.302 C 
ATOM     42  O   UNL     1     -30.334   6.028   9.042  1.00  0.00    -0.253 OA
ATOM     43  C   UNL     1     -31.839   7.383   7.731  1.00  0.00    +0.139 C 
ENDBRANCH  40  41
ENDBRANCH  39  40
ENDBRANCH  28  39
BRANCH  29  44
ATOM     44  O   UNL     1     -33.831   2.026  10.641  1.00  0.00    -0.455 OA
BRANCH  44  45
ATOM     45  C   UNL     1     -35.128   1.773  10.323  1.00  0.00    +0.303 C 
ATOM     46  O   UNL     1     -35.974   1.368  11.106  1.00  0.00    -0.253 OA
ATOM     47  C   UNL     1     -35.368   2.055   8.873  1.00  0.00    +0.139 C 
ENDBRANCH  44  45
ENDBRANCH  29  44
ENDBRANCH   1  25
TORSDOF 21
ENDMDL
MODEL 2
REMARK VINA RESULT:    -7.223      1.869      4.484
REMARK INTER + INTRA:         -18.508
REMARK INTER:                 -16.335
REMARK INTRA:                  -2.173
REMARK UNBOUND:                -2.417
REMARK SMILES CC(=O)OC[C@@H]1O[C@@H](O[C@@]2(COC(C)=O)O[C@H](COC(C)=O)[C@H](OC(C)=O)[C@@H]2OC(C)=O)[C@H](OC(C)=O)[C@H](OC(C)=O)[C@H]1OC(C)=O
REMARK SMILES IDX 9 1 8 2 6 3 7 4 43 5 38 6 33 7 5 8 4 9 2 10 3 11 1 12 44 13
REMARK SMILES IDX 45 14 47 15 46 16 39 17 40 18 42 19 41 20 34 21 35 22 37 23
REMARK SMILES IDX 36 24 10 25 16 26 28 27 17 28 23 29 11 30 12 31 13 32 15 33
REMARK SMILES IDX 14 34 29 35 30 36 32 37 31 38 18 39 19 40 20 41 22 42 21 43
REMARK SMILES IDX 24 44 25 45 27 46 26 47
REMARK H PARENT
ROOT
ATOM      1  O   UNL     1     -28.480  -0.212  11.033  1.00  0.00    -0.310 OA
ENDROOT
BRANCH   1   2
ATOM      2  C   UNL     1     -27.848   0.377   9.903  1.00  0.00    +0.299 C 
ATOM      3  C   UNL     1     -25.795  -0.876  10.016  1.00  0.00    +0.204 C 
ATOM      4  O   UNL     1     -26.954  -0.518   9.256  1.00  0.00    -0.338 OA
ATOM      5  C   UNL     1     -24.988   0.354  10.474  1.00  0.00    +0.253 C 
ATOM      6  C   UNL     1     -25.917   1.346  11.194  1.00  0.00    +0.266 C 
ATOM      7  C   UNL     1     -27.139   1.672  10.327  1.00  0.00    +0.277 C 
BRANCH   3   8
ATOM      8  C   UNL     1     -24.920  -1.787   9.133  1.00  0.00    +0.269 C 
BRANCH   8   9
ATOM      9  O   UNL     1     -24.717  -3.068   9.761  1.00  0.00    -0.463 OA
BRANCH   9  10
ATOM     10  C   UNL     1     -23.446  -3.544   9.787  1.00  0.00    +0.302 C 
ATOM     11  O   UNL     1     -22.976  -4.322  10.609  1.00  0.00    -0.253 OA
ATOM     12  C   UNL     1     -22.677  -3.011   8.616  1.00  0.00    +0.139 C 
ENDBRANCH   9  10
ENDBRANCH   8   9
ENDBRANCH   3   8
BRANCH   5  13
ATOM     13  O   UNL     1     -23.966  -0.118  11.388  1.00  0.00    -0.455 OA
BRANCH  13  14
ATOM     14  C   UNL     1     -22.679  -0.087  10.956  1.00  0.00    +0.303 C 
ATOM     15  O   UNL     1     -21.791  -0.849  11.308  1.00  0.00    -0.253 OA
ATOM     16  C   UNL     1     -22.497   1.027   9.970  1.00  0.00    +0.139 C 
ENDBRANCH  13  14
ENDBRANCH   5  13
BRANCH   6  17
ATOM     17  O   UNL     1     -25.223   2.592  11.441  1.00  0.00    -0.454 OA
BRANCH  17  18
ATOM     18  C   UNL     1     -25.826   3.510  12.236  1.00  0.00    +0.303 C 
ATOM     19  O   UNL     1     -25.497   4.681  12.352  1.00  0.00    -0.253 OA
ATOM     20  C   UNL     1     -26.968   2.873  12.965  1.00  0.00    +0.139 C 
ENDBRANCH  17  18
ENDBRANCH   6  17
BRANCH   7  21
ATOM     21  O   UNL     1     -26.730   2.362   9.120  1.00  0.00    -0.453 OA
BRANCH  21  22
ATOM     22  C   UNL     1     -27.147   3.650   8.989  1.00  0.00    +0.303 C 
ATOM     23  O   UNL     1     -28.295   4.046   9.119  1.00  0.00    -0.253 OA
ATOM     24  C   UNL     1     -25.984   4.526   8.640  1.00  0.00    +0.139 C 
ENDBRANCH  21  22
ENDBRANCH   7  21
ENDBRANCH   1   2
BRANCH   1  25
ATOM     25  C   UNL     1     -29.656   0.450  11.531  1.00  0.00    +0.248 C 
ATOM     26  O   UNL     1     -29.811   1.648  10.717  1.00  0.00    -0.333 OA
ATOM     27  C   UNL     1     -30.937  -0.385  11.247  1.00  0.00    +0.283 C 
ATOM     28  C   UNL     1     -31.047   1.562   9.974  1.00  0.00    +0.204 C 
ATOM     29  C   UNL     1     -31.948   0.665  10.812  1.00  0.00    +0.255 C 
BRANCH  25  30
ATOM     30  C   UNL     1     -29.500   0.881  13.019  1.00  0.00    +0.303 C 
BRANCH  30  31
ATOM     31  O   UNL     1     -28.621   0.008  13.765  1.00  0.00    -0.460 OA
BRANCH  31  32
ATOM     32  C   UNL     1     -28.580   0.200  15.109  1.00  0.00    +0.302 C 
ATOM     33  O   UNL     1     -27.731  -0.239  15.868  1.00  0.00    -0.253 OA
ATOM     34  C   UNL     1     -29.778   0.983  15.547  1.00  0.00    +0.139 C 
ENDBRANCH  31  32
ENDBRANCH  30  31
ENDBRANCH  25  30
BRANCH  27  35
ATOM     35  O   UNL     1     -31.404  -1.138  12.382  1.00  0.00    -0.453 OA
BRANCH  35  36
ATOM     36  C   UNL     1     -31.212  -2.483  12.319  1.00  0.00    +0.303 C 
ATOM     37  O   UNL     1     -30.185  -3.061  12.645  1.00  0.00    -0.253 OA
ATOM     38  C   UNL     1     -32.446  -3.158  11.800  1.00  0.00    +0.139 C 
ENDBRANCH  35  36
ENDBRANCH  27  35
BRANCH  28  39
ATOM     39  C   UNL     1     -31.574   2.968   9.707  1.00  0.00    +0.269 C 
BRANCH  39  40
ATOM     40  O   UNL     1     -32.729   2.860   8.855  1.00  0.00    -0.463 OA
BRANCH  40  41
ATOM     41  C   UNL     1     -33.560   3.934   8.887  1.00  0.00    +0.302 C 
ATOM     42  O   UNL     1     -34.770   3.903   8.713  1.00  0.00    -0.253 OA
ATOM     43  C   UNL     1     -32.775   5.178   9.169  1.00  0.00    +0.139 C 
ENDBRANCH  40  41
ENDBRANCH  39  40
ENDBRANCH  28  39
BRANCH  29  44
ATOM     44  O   UNL     1     -32.451   1.338  11.986  1.00  0.00    -0.455 OA
BRANCH  44  45
ATOM     45  C   UNL     1     -33.666   1.935  11.860  1.00  0.00    +0.303 C 
ATOM     46  O   UNL     1     -33.950   3.041  12.295  1.00  0.00    -0.253 OA
ATOM     47  C   UNL     1     -34.607   1.038  11.120  1.00  0.00    +0.139 C 
ENDBRANCH  44  45
ENDBRANCH  29  44
ENDBRANCH   1  25
TORSDOF 21
ENDMDL
MODEL 3
REMARK VINA RESULT:    -7.082      2.031      7.465
REMARK INTER + INTRA:         -18.193
REMARK INTER:                 -15.725
REMARK INTRA:                  -2.468
REMARK UNBOUND:                -2.417
REMARK SMILES CC(=O)OC[C@@H]1O[C@@H](O[C@@]2(COC(C)=O)O[C@H](COC(C)=O)[C@H](OC(C)=O)[C@@H]2OC(C)=O)[C@H](OC(C)=O)[C@H](OC(C)=O)[C@H]1OC(C)=O
REMARK SMILES IDX 9 1 8 2 6 3 7 4 43 5 38 6 33 7 5 8 4 9 2 10 3 11 1 12 44 13
REMARK SMILES IDX 45 14 47 15 46 16 39 17 40 18 42 19 41 20 34 21 35 22 37 23
REMARK SMILES IDX 36 24 10 25 16 26 28 27 17 28 23 29 11 30 12 31 13 32 15 33
REMARK SMILES IDX 14 34 29 35 30 36 32 37 31 38 18 39 19 40 20 41 22 42 21 43
REMARK SMILES IDX 24 44 25 45 27 46 26 47
REMARK H PARENT
ROOT
ATOM      1  O   UNL     1     -31.798   1.661  11.859  1.00  0.00    -0.310 OA
ENDROOT
BRANCH   1   2
ATOM      2  C   UNL     1     -32.037   1.575  10.460  1.00  0.00    +0.299 C 
ATOM      3  C   UNL     1     -30.565   3.359   9.790  1.00  0.00    +0.204 C 
ATOM      4  O   UNL     1     -30.909   1.973   9.693  1.00  0.00    -0.338 OA
ATOM      5  C   UNL     1     -31.740   4.285   9.422  1.00  0.00    +0.253 C 
ATOM      6  C   UNL     1     -32.982   3.898  10.241  1.00  0.00    +0.266 C 
ATOM      7  C   UNL     1     -33.282   2.401  10.099  1.00  0.00    +0.277 C 
BRANCH   3   8
ATOM      8  C   UNL     1     -29.373   3.612   8.846  1.00  0.00    +0.269 C 
BRANCH   8   9
ATOM      9  O   UNL     1     -28.204   4.007   9.591  1.00  0.00    -0.463 OA
BRANCH   9  10
ATOM     10  C   UNL     1     -27.022   4.004   8.923  1.00  0.00    +0.302 C 
ATOM     11  O   UNL     1     -26.280   3.043   8.760  1.00  0.00    -0.253 OA
ATOM     12  C   UNL     1     -26.754   5.363   8.351  1.00  0.00    +0.139 C 
ENDBRANCH   9  10
ENDBRANCH   8   9
ENDBRANCH   3   8
BRANCH   5  13
ATOM     13  O   UNL     1     -31.337   5.640   9.746  1.00  0.00    -0.455 OA
BRANCH  13  14
ATOM     14  C   UNL     1     -30.996   6.454   8.713  1.00  0.00    +0.303 C 
ATOM     15  O   UNL     1     -29.888   6.929   8.516  1.00  0.00    -0.253 OA
ATOM     16  C   UNL     1     -32.187   6.690   7.834  1.00  0.00    +0.139 C 
ENDBRANCH  13  14
ENDBRANCH   5  13
BRANCH   6  17
ATOM     17  O   UNL     1     -34.143   4.615   9.759  1.00  0.00    -0.454 OA
BRANCH  17  18
ATOM     18  C   UNL     1     -35.056   5.036  10.668  1.00  0.00    +0.303 C 
ATOM     19  O   UNL     1     -36.260   5.135  10.480  1.00  0.00    -0.253 OA
ATOM     20  C   UNL     1     -34.367   5.371  11.955  1.00  0.00    +0.139 C 
ENDBRANCH  17  18
ENDBRANCH   6  17
BRANCH   7  21
ATOM     21  O   UNL     1     -33.633   2.086   8.729  1.00  0.00    -0.453 OA
BRANCH  21  22
ATOM     22  C   UNL     1     -34.945   2.218   8.396  1.00  0.00    +0.303 C 
ATOM     23  O   UNL     1     -35.889   1.737   9.005  1.00  0.00    -0.253 OA
ATOM     24  C   UNL     1     -35.072   3.036   7.148  1.00  0.00    +0.139 C 
ENDBRANCH  21  22
ENDBRANCH   7  21
ENDBRANCH   1   2
BRANCH   1  25
ATOM     25  C   UNL     1     -31.033   0.595  12.449  1.00  0.00    +0.248 C 
ATOM     26  O   UNL     1     -31.956  -0.524  12.588  1.00  0.00    -0.333 OA
ATOM     27  C   UNL     1     -29.937   0.080  11.473  1.00  0.00    +0.283 C 
ATOM     28  C   UNL     1     -31.503  -1.619  11.761  1.00  0.00    +0.204 C 
ATOM     29  C   UNL     1     -29.997  -1.430  11.647  1.00  0.00    +0.255 C 
BRANCH  25  30
ATOM     30  C   UNL     1     -30.496   0.970  13.861  1.00  0.00    +0.303 C 
BRANCH  30  31
ATOM     31  O   UNL     1     -30.621  -0.112  14.812  1.00  0.00    -0.460 OA
BRANCH  31  32
ATOM     32  C   UNL     1     -29.629  -0.221  15.734  1.00  0.00    +0.302 C 
ATOM     33  O   UNL     1     -28.760   0.608  15.951  1.00  0.00    -0.253 OA
ATOM     34  C   UNL     1     -29.708  -1.554  16.410  1.00  0.00    +0.139 C 
ENDBRANCH  31  32
ENDBRANCH  30  31
ENDBRANCH  25  30
BRANCH  27  35
ATOM     35  O   UNL     1     -28.623   0.598  11.750  1.00  0.00    -0.453 OA
BRANCH  35  36
ATOM     36  C   UNL     1     -27.716   0.480  10.743  1.00  0.00    +0.303 C 
ATOM     37  O   UNL     1     -27.993   0.262   9.571  1.00  0.00    -0.253 OA
ATOM     38  C   UNL     1     -26.326   0.664  11.273  1.00  0.00    +0.139 C 
ENDBRANCH  35  36
ENDBRANCH  27  35
BRANCH  28  39
ATOM     39  C   UNL     1     -31.962  -2.938  12.375  1.00  0.00    +0.269 C 
BRANCH  39  40
ATOM     40  O   UNL     1     -33.116  -3.395  11.647  1.00  0.00    -0.463 OA
BRANCH  40  41
ATOM     41  C   UNL     1     -33.563  -4.626  12.006  1.00  0.00    +0.302 C 
ATOM     42  O   UNL     1     -34.703  -5.043  11.849  1.00  0.00    -0.253 OA
ATOM     43  C   UNL     1     -32.450  -5.411  12.629  1.00  0.00    +0.139 C 
ENDBRANCH  40  41
ENDBRANCH  39  40
ENDBRANCH  28  39
BRANCH  29  44
ATOM     44  O   UNL     1     -29.308  -1.784  12.865  1.00  0.00    -0.455 OA
BRANCH  44  45
ATOM     45  C   UNL     1     -28.346  -2.738  12.755  1.00  0.00    +0.303 C 
ATOM     46  O   UNL     1     -27.241  -2.565  12.263  1.00  0.00    -0.253 OA
ATOM     47  C   UNL     1     -28.840  -4.034  13.316  1.00  0.00    +0.139 C 
ENDBRANCH  44  45
ENDBRANCH  29  44
ENDBRANCH   1  25
TORSDOF 21
ENDMDL
MODEL 4
REMARK VINA RESULT:    -7.011      2.797      7.514
REMARK INTER + INTRA:         -18.035
REMARK INTER:                 -15.160
REMARK INTRA:                  -2.875
REMARK UNBOUND:                -2.417
REMARK SMILES CC(=O)OC[C@@H]1O[C@@H](O[C@@]2(COC(C)=O)O[C@H](COC(C)=O)[C@H](OC(C)=O)[C@@H]2OC(C)=O)[C@H](OC(C)=O)[C@H](OC(C)=O)[C@H]1OC(C)=O
REMARK SMILES IDX 9 1 8 2 6 3 7 4 43 5 38 6 33 7 5 8 4 9 2 10 3 11 1 12 44 13
REMARK SMILES IDX 45 14 47 15 46 16 39 17 40 18 42 19 41 20 34 21 35 22 37 23
REMARK SMILES IDX 36 24 10 25 16 26 28 27 17 28 23 29 11 30 12 31 13 32 15 33
REMARK SMILES IDX 14 34 29 35 30 36 32 37 31 38 18 39 19 40 20 41 22 42 21 43
REMARK SMILES IDX 24 44 25 45 27 46 26 47
REMARK H PARENT
ROOT
ATOM      1  O   UNL     1     -32.954   1.613  11.196  1.00  0.00    -0.310 OA
ENDROOT
BRANCH   1   2
ATOM      2  C   UNL     1     -31.924   0.940  10.483  1.00  0.00    +0.299 C 
ATOM      3  C   UNL     1     -32.227  -1.228  11.484  1.00  0.00    +0.204 C 
ATOM      4  O   UNL     1     -32.209  -0.438  10.290  1.00  0.00    -0.338 OA
ATOM      5  C   UNL     1     -30.912  -1.123  12.281  1.00  0.00    +0.253 C 
ATOM      6  C   UNL     1     -30.570   0.357  12.524  1.00  0.00    +0.266 C 
ATOM      7  C   UNL     1     -30.583   1.141  11.206  1.00  0.00    +0.277 C 
BRANCH   3   8
ATOM      8  C   UNL     1     -32.482  -2.692  11.072  1.00  0.00    +0.269 C 
BRANCH   8   9
ATOM      9  O   UNL     1     -33.323  -3.356  12.036  1.00  0.00    -0.463 OA
BRANCH   9  10
ATOM     10  C   UNL     1     -33.201  -4.705  12.129  1.00  0.00    +0.302 C 
ATOM     11  O   UNL     1     -33.373  -5.517  11.228  1.00  0.00    -0.253 OA
ATOM     12  C   UNL     1     -32.768  -5.085  13.513  1.00  0.00    +0.139 C 
ENDBRANCH   9  10
ENDBRANCH   8   9
ENDBRANCH   3   8
BRANCH   5  13
ATOM     13  O   UNL     1     -31.121  -1.796  13.547  1.00  0.00    -0.455 OA
BRANCH  13  14
ATOM     14  C   UNL     1     -30.115  -2.581  14.011  1.00  0.00    +0.303 C 
ATOM     15  O   UNL     1     -29.205  -3.044  13.340  1.00  0.00    -0.253 OA
ATOM     16  C   UNL     1     -30.276  -2.802  15.485  1.00  0.00    +0.139 C 
ENDBRANCH  13  14
ENDBRANCH   5  13
BRANCH   6  17
ATOM     17  O   UNL     1     -29.241   0.478  13.082  1.00  0.00    -0.454 OA
BRANCH  17  18
ATOM     18  C   UNL     1     -29.041   1.395  14.060  1.00  0.00    +0.303 C 
ATOM     19  O   UNL     1     -28.306   2.369  13.989  1.00  0.00    -0.253 OA
ATOM     20  C   UNL     1     -29.860   1.036  15.262  1.00  0.00    +0.139 C 
ENDBRANCH  17  18
ENDBRANCH   6  17
BRANCH   7  21
ATOM     21  O   UNL     1     -29.535   0.662  10.326  1.00  0.00    -0.453 OA
BRANCH  21  22
ATOM     22  C   UNL     1     -28.400   1.409  10.276  1.00  0.00    +0.303 C 
ATOM     23  O   UNL     1     -28.323   2.609  10.494  1.00  0.00    -0.253 OA
ATOM     24  C   UNL     1     -27.240   0.542   9.895  1.00  0.00    +0.139 C 
ENDBRANCH  21  22
ENDBRANCH   7  21
ENDBRANCH   1   2
BRANCH   1  25
ATOM     25  C   UNL     1     -34.073   2.083  10.421  1.00  0.00    +0.248 C 
ATOM     26  O   UNL     1     -34.985   0.952  10.318  1.00  0.00    -0.333 OA
ATOM     27  C   UNL     1     -34.877   3.167  11.192  1.00  0.00    +0.283 C 
ATOM     28  C   UNL     1     -36.226   1.280  10.983  1.00  0.00    +0.204 C 
ATOM     29  C   UNL     1     -36.324   2.797  10.905  1.00  0.00    +0.255 C 
BRANCH  25  30
ATOM     30  C   UNL     1     -33.652   2.510   8.984  1.00  0.00    +0.303 C 
BRANCH  30  31
ATOM     31  O   UNL     1     -34.724   2.372   8.024  1.00  0.00    -0.460 OA
BRANCH  31  32
ATOM     32  C   UNL     1     -34.676   3.197   6.946  1.00  0.00    +0.302 C 
ATOM     33  O   UNL     1     -34.756   2.852   5.778  1.00  0.00    -0.253 OA
ATOM     34  C   UNL     1     -34.438   4.605   7.393  1.00  0.00    +0.139 C 
ENDBRANCH  31  32
ENDBRANCH  30  31
ENDBRANCH  25  30
BRANCH  27  35
ATOM     35  O   UNL     1     -34.578   4.514  10.782  1.00  0.00    -0.453 OA
BRANCH  35  36
ATOM     36  C   UNL     1     -34.627   5.456  11.762  1.00  0.00    +0.303 C 
ATOM     37  O   UNL     1     -33.691   5.762  12.489  1.00  0.00    -0.253 OA
ATOM     38  C   UNL     1     -35.992   6.073  11.820  1.00  0.00    +0.139 C 
ENDBRANCH  35  36
ENDBRANCH  27  35
BRANCH  28  39
ATOM     39  C   UNL     1     -37.368   0.506  10.331  1.00  0.00    +0.269 C 
BRANCH  39  40
ATOM     40  O   UNL     1     -38.020  -0.274  11.349  1.00  0.00    -0.463 OA
BRANCH  40  41
ATOM     41  C   UNL     1     -39.328  -0.544  11.106  1.00  0.00    +0.302 C 
ATOM     42  O   UNL     1     -39.769  -1.603  10.681  1.00  0.00    -0.253 OA
ATOM     43  C   UNL     1     -40.167   0.653  11.435  1.00  0.00    +0.139 C 
ENDBRANCH  40  41
ENDBRANCH  39  40
ENDBRANCH  28  39
BRANCH  29  44
ATOM     44  O   UNL     1     -36.665   3.256   9.579  1.00  0.00    -0.455 OA
BRANCH  44  45
ATOM     45  C   UNL     1     -37.621   4.220   9.505  1.00  0.00    +0.303 C 
ATOM     46  O   UNL     1     -37.567   5.205   8.784  1.00  0.00    -0.253 OA
ATOM     47  C   UNL     1     -38.745   3.903  10.440  1.00  0.00    +0.139 C 
ENDBRANCH  44  45
ENDBRANCH  29  44
ENDBRANCH   1  25
TORSDOF 21
ENDMDL
MODEL 5
REMARK VINA RESULT:    -6.889      2.374      6.950
REMARK INTER + INTRA:         -17.763
REMARK INTER:                 -14.898
REMARK INTRA:                  -2.866
REMARK UNBOUND:                -2.417
REMARK SMILES CC(=O)OC[C@@H]1O[C@@H](O[C@@]2(COC(C)=O)O[C@H](COC(C)=O)[C@H](OC(C)=O)[C@@H]2OC(C)=O)[C@H](OC(C)=O)[C@H](OC(C)=O)[C@H]1OC(C)=O
REMARK SMILES IDX 9 1 8 2 6 3 7 4 43 5 38 6 33 7 5 8 4 9 2 10 3 11 1 12 44 13
REMARK SMILES IDX 45 14 47 15 46 16 39 17 40 18 42 19 41 20 34 21 35 22 37 23
REMARK SMILES IDX 36 24 10 25 16 26 28 27 17 28 23 29 11 30 12 31 13 32 15 33
REMARK SMILES IDX 14 34 29 35 30 36 32 37 31 38 18 39 19 40 20 41 22 42 21 43
REMARK SMILES IDX 24 44 25 45 27 46 26 47
REMARK H PARENT
ROOT
ATOM      1  O   UNL     1     -32.382   1.945  11.135  1.00  0.00    -0.310 OA
ENDROOT
BRANCH   1   2
ATOM      2  C   UNL     1     -31.339   1.208  10.511  1.00  0.00    +0.299 C 
ATOM      3  C   UNL     1     -31.842  -0.928  11.501  1.00  0.00    +0.204 C 
ATOM      4  O   UNL     1     -31.687  -0.155  10.307  1.00  0.00    -0.338 OA
ATOM      5  C   UNL     1     -30.590  -0.887  12.398  1.00  0.00    +0.253 C 
ATOM      6  C   UNL     1     -30.185   0.574  12.657  1.00  0.00    +0.266 C 
ATOM      7  C   UNL     1     -30.050   1.342  11.336  1.00  0.00    +0.277 C 
BRANCH   3   8
ATOM      8  C   UNL     1     -32.147  -2.380  11.082  1.00  0.00    +0.269 C 
BRANCH   8   9
ATOM      9  O   UNL     1     -33.291  -2.890  11.795  1.00  0.00    -0.463 OA
BRANCH   9  10
ATOM     10  C   UNL     1     -33.346  -4.234  11.984  1.00  0.00    +0.302 C 
ATOM     11  O   UNL     1     -34.288  -4.969  11.716  1.00  0.00    -0.253 OA
ATOM     12  C   UNL     1     -32.045  -4.724  12.542  1.00  0.00    +0.139 C 
ENDBRANCH   9  10
ENDBRANCH   8   9
ENDBRANCH   3   8
BRANCH   5  13
ATOM     13  O   UNL     1     -30.936  -1.532  13.650  1.00  0.00    -0.455 OA
BRANCH  13  14
ATOM     14  C   UNL     1     -29.996  -2.328  14.222  1.00  0.00    +0.303 C 
ATOM     15  O   UNL     1     -29.935  -2.619  15.407  1.00  0.00    -0.253 OA
ATOM     16  C   UNL     1     -29.031  -2.810  13.181  1.00  0.00    +0.139 C 
ENDBRANCH  13  14
ENDBRANCH   5  13
BRANCH   6  17
ATOM     17  O   UNL     1     -28.899   0.627  13.317  1.00  0.00    -0.454 OA
BRANCH  17  18
ATOM     18  C   UNL     1     -28.728   1.537  14.308  1.00  0.00    +0.303 C 
ATOM     19  O   UNL     1     -28.049   2.551  14.238  1.00  0.00    -0.253 OA
ATOM     20  C   UNL     1     -29.497   1.111  15.520  1.00  0.00    +0.139 C 
ENDBRANCH  17  18
ENDBRANCH   6  17
BRANCH   7  21
ATOM     21  O   UNL     1     -28.965   0.795  10.545  1.00  0.00    -0.453 OA
BRANCH  21  22
ATOM     22  C   UNL     1     -27.838   1.551  10.459  1.00  0.00    +0.303 C 
ATOM     23  O   UNL     1     -27.687   2.666  10.937  1.00  0.00    -0.253 OA
ATOM     24  C   UNL     1     -26.796   0.820   9.671  1.00  0.00    +0.139 C 
ENDBRANCH  21  22
ENDBRANCH   7  21
ENDBRANCH   1   2
BRANCH   1  25
ATOM     25  C   UNL     1     -33.229   2.723  10.269  1.00  0.00    +0.248 C 
ATOM     26  O   UNL     1     -34.470   2.922  11.005  1.00  0.00    -0.333 OA
ATOM     27  C   UNL     1     -32.661   4.156  10.063  1.00  0.00    +0.283 C 
ATOM     28  C   UNL     1     -34.650   4.333  11.261  1.00  0.00    +0.204 C 
ATOM     29  C   UNL     1     -33.900   5.036  10.138  1.00  0.00    +0.255 C 
BRANCH  25  30
ATOM     30  C   UNL     1     -33.556   1.976   8.943  1.00  0.00    +0.303 C 
BRANCH  30  31
ATOM     31  O   UNL     1     -34.970   1.961   8.644  1.00  0.00    -0.460 OA
BRANCH  31  32
ATOM     32  C   UNL     1     -35.354   2.617   7.518  1.00  0.00    +0.302 C 
ATOM     33  O   UNL     1     -34.656   2.826   6.539  1.00  0.00    -0.253 OA
ATOM     34  C   UNL     1     -36.756   3.116   7.674  1.00  0.00    +0.139 C 
ENDBRANCH  31  32
ENDBRANCH  30  31
ENDBRANCH  25  30
BRANCH  27  35
ATOM     35  O   UNL     1     -31.958   4.329   8.819  1.00  0.00    -0.453 OA
BRANCH  35  36
ATOM     36  C   UNL     1     -30.746   4.940   8.904  1.00  0.00    +0.303 C 
ATOM     37  O   UNL     1     -29.694   4.379   9.178  1.00  0.00    -0.253 OA
ATOM     38  C   UNL     1     -30.881   6.403   8.604  1.00  0.00    +0.139 C 
ENDBRANCH  35  36
ENDBRANCH  27  35
BRANCH  28  39
ATOM     39  C   UNL     1     -36.140   4.643  11.359  1.00  0.00    +0.269 C 
BRANCH  39  40
ATOM     40  O   UNL     1     -36.869   3.477  10.935  1.00  0.00    -0.463 OA
BRANCH  40  41
ATOM     41  C   UNL     1     -38.220   3.596  11.007  1.00  0.00    +0.302 C 
ATOM     42  O   UNL     1     -39.000   2.694  11.280  1.00  0.00    -0.253 OA
ATOM     43  C   UNL     1     -38.626   5.006  10.703  1.00  0.00    +0.139 C 
ENDBRANCH  40  41
ENDBRANCH  39  40
ENDBRANCH  28  39
BRANCH  29  44
ATOM     44  O   UNL     1     -34.601   4.958   8.879  1.00  0.00    -0.455 OA
BRANCH  44  45
ATOM     45  C   UNL     1     -35.104   6.125   8.399  1.00  0.00    +0.303 C 
ATOM     46  O   UNL     1     -36.113   6.675   8.813  1.00  0.00    -0.253 OA
ATOM     47  C   UNL     1     -34.248   6.636   7.283  1.00  0.00    +0.139 C 
ENDBRANCH  44  45
ENDBRANCH  29  44
ENDBRANCH   1  25
TORSDOF 21
ENDMDL
MODEL 6
REMARK VINA RESULT:    -6.779      2.064      4.137
REMARK INTER + INTRA:         -17.518
REMARK INTER:                 -13.842
REMARK INTRA:                  -3.676
REMARK UNBOUND:                -2.417
REMARK SMILES CC(=O)OC[C@@H]1O[C@@H](O[C@@]2(COC(C)=O)O[C@H](COC(C)=O)[C@H](OC(C)=O)[C@@H]2OC(C)=O)[C@H](OC(C)=O)[C@H](OC(C)=O)[C@H]1OC(C)=O
REMARK SMILES IDX 9 1 8 2 6 3 7 4 43 5 38 6 33 7 5 8 4 9 2 10 3 11 1 12 44 13
REMARK SMILES IDX 45 14 47 15 46 16 39 17 40 18 42 19 41 20 34 21 35 22 37 23
REMARK SMILES IDX 36 24 10 25 16 26 28 27 17 28 23 29 11 30 12 31 13 32 15 33
REMARK SMILES IDX 14 34 29 35 30 36 32 37 31 38 18 39 19 40 20 41 22 42 21 43
REMARK SMILES IDX 24 44 25 45 27 46 26 47
REMARK H PARENT
ROOT
ATOM      1  O   UNL     1     -31.152   2.502   9.570  1.00  0.00    -0.310 OA
ENDROOT
BRANCH   1   2
ATOM      2  C   UNL     1     -30.251   2.715  10.650  1.00  0.00    +0.299 C 
ATOM      3  C   UNL     1     -28.211   2.521   9.385  1.00  0.00    +0.204 C 
ATOM      4  O   UNL     1     -29.039   3.327  10.230  1.00  0.00    -0.338 OA
ATOM      5  C   UNL     1     -27.861   1.164  10.025  1.00  0.00    +0.253 C 
ATOM      6  C   UNL     1     -29.148   0.458  10.483  1.00  0.00    +0.266 C 
ATOM      7  C   UNL     1     -29.988   1.384  11.371  1.00  0.00    +0.277 C 
BRANCH   3   8
ATOM      8  C   UNL     1     -26.925   3.319   9.093  1.00  0.00    +0.269 C 
BRANCH   8   9
ATOM      9  O   UNL     1     -26.672   4.283  10.135  1.00  0.00    -0.463 OA
BRANCH   9  10
ATOM     10  C   UNL     1     -25.657   4.005  10.994  1.00  0.00    +0.302 C 
ATOM     11  O   UNL     1     -24.463   3.966  10.723  1.00  0.00    -0.253 OA
ATOM     12  C   UNL     1     -26.202   3.787  12.373  1.00  0.00    +0.139 C 
ENDBRANCH   9  10
ENDBRANCH   8   9
ENDBRANCH   3   8
BRANCH   5  13
ATOM     13  O   UNL     1     -27.196   0.369   9.011  1.00  0.00    -0.455 OA
BRANCH  13  14
ATOM     14  C   UNL     1     -26.174  -0.430   9.413  1.00  0.00    +0.303 C 
ATOM     15  O   UNL     1     -25.912  -1.533   8.960  1.00  0.00    -0.253 OA
ATOM     16  C   UNL     1     -25.400   0.243  10.507  1.00  0.00    +0.139 C 
ENDBRANCH  13  14
ENDBRANCH   5  13
BRANCH   6  17
ATOM     17  O   UNL     1     -28.824  -0.712  11.270  1.00  0.00    -0.454 OA
BRANCH  17  18
ATOM     18  C   UNL     1     -29.814  -1.603  11.525  1.00  0.00    +0.303 C 
ATOM     19  O   UNL     1     -30.898  -1.647  10.963  1.00  0.00    -0.253 OA
ATOM     20  C   UNL     1     -29.383  -2.536  12.613  1.00  0.00    +0.139 C 
ENDBRANCH  17  18
ENDBRANCH   6  17
BRANCH   7  21
ATOM     21  O   UNL     1     -29.278   1.685  12.598  1.00  0.00    -0.453 OA
BRANCH  21  22
ATOM     22  C   UNL     1     -29.628   0.958  13.693  1.00  0.00    +0.303 C 
ATOM     23  O   UNL     1     -30.765   0.630  13.999  1.00  0.00    -0.253 OA
ATOM     24  C   UNL     1     -28.406   0.624  14.492  1.00  0.00    +0.139 C 
ENDBRANCH  21  22
ENDBRANCH   7  21
ENDBRANCH   1   2
BRANCH   1  25
ATOM     25  C   UNL     1     -32.350   3.299   9.563  1.00  0.00    +0.248 C 
ATOM     26  O   UNL     1     -32.782   3.352   8.173  1.00  0.00    -0.333 OA
ATOM     27  C   UNL     1     -33.510   2.581  10.308  1.00  0.00    +0.283 C 
ATOM     28  C   UNL     1     -34.069   2.706   8.050  1.00  0.00    +0.204 C 
ATOM     29  C   UNL     1     -34.715   2.854   9.420  1.00  0.00    +0.255 C 
BRANCH  25  30
ATOM     30  C   UNL     1     -32.089   4.754  10.055  1.00  0.00    +0.303 C 
BRANCH  30  31
ATOM     31  O   UNL     1     -32.283   5.738   9.014  1.00  0.00    -0.460 OA
BRANCH  31  32
ATOM     32  C   UNL     1     -31.166   6.373   8.570  1.00  0.00    +0.302 C 
ATOM     33  O   UNL     1     -30.017   6.084   8.861  1.00  0.00    -0.253 OA
ATOM     34  C   UNL     1     -31.552   7.539   7.714  1.00  0.00    +0.139 C 
ENDBRANCH  31  32
ENDBRANCH  30  31
ENDBRANCH  25  30
BRANCH  27  35
ATOM     35  O   UNL     1     -33.719   3.052  11.652  1.00  0.00    -0.453 OA
BRANCH  35  36
ATOM     36  C   UNL     1     -33.465   2.153  12.640  1.00  0.00    +0.303 C 
ATOM     37  O   UNL     1     -33.343   2.430  13.826  1.00  0.00    -0.253 OA
ATOM     38  C   UNL     1     -33.361   0.771  12.070  1.00  0.00    +0.139 C 
ENDBRANCH  35  36
ENDBRANCH  27  35
BRANCH  28  39
ATOM     39  C   UNL     1     -34.834   3.324   6.884  1.00  0.00    +0.269 C 
BRANCH  39  40
ATOM     40  O   UNL     1     -34.285   4.629   6.628  1.00  0.00    -0.463 OA
BRANCH  40  41
ATOM     41  C   UNL     1     -34.096   4.916   5.314  1.00  0.00    +0.302 C 
ATOM     42  O   UNL     1     -34.030   4.096   4.409  1.00  0.00    -0.253 OA
ATOM     43  C   UNL     1     -33.979   6.398   5.128  1.00  0.00    +0.139 C 
ENDBRANCH  40  41
ENDBRANCH  39  40
ENDBRANCH  28  39
BRANCH  29  44
ATOM     44  O   UNL     1     -35.176   4.200   9.665  1.00  0.00    -0.455 OA
BRANCH  44  45
ATOM     45  C   UNL     1     -36.523   4.379   9.685  1.00  0.00    +0.303 C 
ATOM     46  O   UNL     1     -37.136   5.158   8.971  1.00  0.00    -0.253 OA
ATOM     47  C   UNL     1     -37.146   3.490  10.714  1.00  0.00    +0.139 C 
ENDBRANCH  44  45
ENDBRANCH  29  44
ENDBRANCH   1  25
TORSDOF 21
ENDMDL
MODEL 7
REMARK VINA RESULT:    -6.588      1.997      5.112
REMARK INTER + INTRA:         -17.093
REMARK INTER:                 -14.230
REMARK INTRA:                  -2.863
REMARK UNBOUND:                -2.417
REMARK SMILES CC(=O)OC[C@@H]1O[C@@H](O[C@@]2(COC(C)=O)O[C@H](COC(C)=O)[C@H](OC(C)=O)[C@@H]2OC(C)=O)[C@H](OC(C)=O)[C@H](OC(C)=O)[C@H]1OC(C)=O
REMARK SMILES IDX 9 1 8 2 6 3 7 4 43 5 38 6 33 7 5 8 4 9 2 10 3 11 1 12 44 13
REMARK SMILES IDX 45 14 47 15 46 16 39 17 40 18 42 19 41 20 34 21 35 22 37 23
REMARK SMILES IDX 36 24 10 25 16 26 28 27 17 28 23 29 11 30 12 31 13 32 15 33
REMARK SMILES IDX 14 34 29 35 30 36 32 37 31 38 18 39 19 40 20 41 22 42 21 43
REMARK SMILES IDX 24 44 25 45 27 46 26 47
REMARK H PARENT
ROOT
ATOM      1  O   UNL     1     -31.131   2.420   9.412  1.00  0.00    -0.310 OA
ENDROOT
BRANCH   1   2
ATOM      2  C   UNL     1     -30.359   2.542  10.600  1.00  0.00    +0.299 C 
ATOM      3  C   UNL     1     -28.192   2.296   9.581  1.00  0.00    +0.204 C 
ATOM      4  O   UNL     1     -29.078   3.108  10.358  1.00  0.00    -0.338 OA
ATOM      5  C   UNL     1     -27.985   0.897  10.192  1.00  0.00    +0.253 C 
ATOM      6  C   UNL     1     -29.349   0.240  10.460  1.00  0.00    +0.266 C 
ATOM      7  C   UNL     1     -30.247   1.170  11.284  1.00  0.00    +0.277 C 
BRANCH   3   8
ATOM      8  C   UNL     1     -26.844   3.037   9.483  1.00  0.00    +0.269 C 
BRANCH   8   9
ATOM      9  O   UNL     1     -26.768   4.095  10.459  1.00  0.00    -0.463 OA
BRANCH   9  10
ATOM     10  C   UNL     1     -25.837   3.960  11.438  1.00  0.00    +0.302 C 
ATOM     11  O   UNL     1     -26.038   4.001  12.645  1.00  0.00    -0.253 OA
ATOM     12  C   UNL     1     -24.492   3.702  10.830  1.00  0.00    +0.139 C 
ENDBRANCH   9  10
ENDBRANCH   8   9
ENDBRANCH   3   8
BRANCH   5  13
ATOM     13  O   UNL     1     -27.239   0.112   9.228  1.00  0.00    -0.455 OA
BRANCH  13  14
ATOM     14  C   UNL     1     -26.042  -0.392   9.625  1.00  0.00    +0.303 C 
ATOM     15  O   UNL     1     -25.183   0.216  10.247  1.00  0.00    -0.253 OA
ATOM     16  C   UNL     1     -25.920  -1.822   9.191  1.00  0.00    +0.139 C 
ENDBRANCH  13  14
ENDBRANCH   5  13
BRANCH   6  17
ATOM     17  O   UNL     1     -29.178  -0.977  11.224  1.00  0.00    -0.454 OA
BRANCH  17  18
ATOM     18  C   UNL     1     -30.276  -1.730  11.477  1.00  0.00    +0.303 C 
ATOM     19  O   UNL     1     -31.302  -1.745  10.813  1.00  0.00    -0.253 OA
ATOM     20  C   UNL     1     -30.050  -2.551  12.709  1.00  0.00    +0.139 C 
ENDBRANCH  17  18
ENDBRANCH   6  17
BRANCH   7  21
ATOM     21  O   UNL     1     -29.678   1.383  12.600  1.00  0.00    -0.453 OA
BRANCH  21  22
ATOM     22  C   UNL     1     -30.469   1.063  13.659  1.00  0.00    +0.303 C 
ATOM     23  O   UNL     1     -31.669   0.839  13.613  1.00  0.00    -0.253 OA
ATOM     24  C   UNL     1     -29.651   1.038  14.913  1.00  0.00    +0.139 C 
ENDBRANCH  21  22
ENDBRANCH   7  21
ENDBRANCH   1   2
BRANCH   1  25
ATOM     25  C   UNL     1     -32.467   2.952   9.455  1.00  0.00    +0.248 C 
ATOM     26  O   UNL     1     -33.238   2.019  10.265  1.00  0.00    -0.333 OA
ATOM     27  C   UNL     1     -32.517   4.291  10.244  1.00  0.00    +0.283 C 
ATOM     28  C   UNL     1     -33.701   2.694  11.457  1.00  0.00    +0.204 C 
ATOM     29  C   UNL     1     -33.790   4.162  11.068  1.00  0.00    +0.255 C 
BRANCH  25  30
ATOM     30  C   UNL     1     -33.113   3.028   8.040  1.00  0.00    +0.303 C 
BRANCH  30  31
ATOM     31  O   UNL     1     -34.451   2.480   8.006  1.00  0.00    -0.460 OA
BRANCH  31  32
ATOM     32  C   UNL     1     -35.405   3.256   7.429  1.00  0.00    +0.302 C 
ATOM     33  O   UNL     1     -36.611   3.101   7.530  1.00  0.00    -0.253 OA
ATOM     34  C   UNL     1     -34.759   4.307   6.580  1.00  0.00    +0.139 C 
ENDBRANCH  31  32
ENDBRANCH  30  31
ENDBRANCH  25  30
BRANCH  27  35
ATOM     35  O   UNL     1     -32.540   5.460   9.405  1.00  0.00    -0.453 OA
BRANCH  35  36
ATOM     36  C   UNL     1     -31.338   5.852   8.903  1.00  0.00    +0.303 C 
ATOM     37  O   UNL     1     -30.264   5.329   9.164  1.00  0.00    -0.253 OA
ATOM     38  C   UNL     1     -31.519   7.015   7.974  1.00  0.00    +0.139 C 
ENDBRANCH  35  36
ENDBRANCH  27  35
BRANCH  28  39
ATOM     39  C   UNL     1     -35.002   2.052  11.927  1.00  0.00    +0.269 C 
BRANCH  39  40
ATOM     40  O   UNL     1     -35.683   1.522  10.776  1.00  0.00    -0.463 OA
BRANCH  40  41
ATOM     41  C   UNL     1     -37.003   1.263  10.966  1.00  0.00    +0.302 C 
ATOM     42  O   UNL     1     -37.488   0.161  11.182  1.00  0.00    -0.253 OA
ATOM     43  C   UNL     1     -37.791   2.534  10.876  1.00  0.00    +0.139 C 
ENDBRANCH  40  41
ENDBRANCH  39  40
ENDBRANCH  28  39
BRANCH  29  44
ATOM     44  O   UNL     1     -34.923   4.436  10.215  1.00  0.00    -0.455 OA
BRANCH  44  45
ATOM     45  C   UNL     1     -35.757   5.427  10.626  1.00  0.00    +0.303 C 
ATOM     46  O   UNL     1     -35.917   5.771  11.787  1.00  0.00    -0.253 OA
ATOM     47  C   UNL     1     -36.457   6.031   9.450  1.00  0.00    +0.139 C 
ENDBRANCH  44  45
ENDBRANCH  29  44
ENDBRANCH   1  25
TORSDOF 21
ENDMDL
MODEL 8
REMARK VINA RESULT:    -6.391      2.422      8.244
REMARK INTER + INTRA:         -16.654
REMARK INTER:                 -14.747
REMARK INTRA:                  -1.907
REMARK UNBOUND:                -2.417
REMARK SMILES CC(=O)OC[C@@H]1O[C@@H](O[C@@]2(COC(C)=O)O[C@H](COC(C)=O)[C@H](OC(C)=O)[C@@H]2OC(C)=O)[C@H](OC(C)=O)[C@H](OC(C)=O)[C@H]1OC(C)=O
REMARK SMILES IDX 9 1 8 2 6 3 7 4 43 5 38 6 33 7 5 8 4 9 2 10 3 11 1 12 44 13
REMARK SMILES IDX 45 14 47 15 46 16 39 17 40 18 42 19 41 20 34 21 35 22 37 23
REMARK SMILES IDX 36 24 10 25 16 26 28 27 17 28 23 29 11 30 12 31 13 32 15 33
REMARK SMILES IDX 14 34 29 35 30 36 32 37 31 38 18 39 19 40 20 41 22 42 21 43
REMARK SMILES IDX 24 44 25 45 27 46 26 47
REMARK H PARENT
ROOT
ATOM      1  O   UNL     1     -32.510   1.801  10.317  1.00  0.00    -0.310 OA
ENDROOT
BRANCH   1   2
ATOM      2  C   UNL     1     -32.463   3.204  10.545  1.00  0.00    +0.299 C 
ATOM      3  C   UNL     1     -34.837   3.560  10.735  1.00  0.00    +0.204 C 
ATOM      4  O   UNL     1     -33.546   3.659  11.346  1.00  0.00    -0.338 OA
ATOM      5  C   UNL     1     -34.906   4.293   9.382  1.00  0.00    +0.253 C 
ATOM      6  C   UNL     1     -33.757   3.821   8.476  1.00  0.00    +0.266 C 
ATOM      7  C   UNL     1     -32.410   3.943   9.199  1.00  0.00    +0.277 C 
BRANCH   3   8
ATOM      8  C   UNL     1     -35.864   4.158  11.716  1.00  0.00    +0.269 C 
BRANCH   8   9
ATOM      9  O   UNL     1     -35.796   5.598  11.716  1.00  0.00    -0.463 OA
BRANCH   9  10
ATOM     10  C   UNL     1     -36.965   6.267  11.550  1.00  0.00    +0.302 C 
ATOM     11  O   UNL     1     -37.093   7.453  11.270  1.00  0.00    -0.253 OA
ATOM     12  C   UNL     1     -38.120   5.327  11.716  1.00  0.00    +0.139 C 
ENDBRANCH   9  10
ENDBRANCH   8   9
ENDBRANCH   3   8
BRANCH   5  13
ATOM     13  O   UNL     1     -36.181   3.960   8.777  1.00  0.00    -0.455 OA
BRANCH  13  14
ATOM     14  C   UNL     1     -37.010   4.988   8.460  1.00  0.00    +0.303 C 
ATOM     15  O   UNL     1     -36.661   6.128   8.193  1.00  0.00    -0.253 OA
ATOM     16  C   UNL     1     -38.434   4.521   8.480  1.00  0.00    +0.139 C 
ENDBRANCH  13  14
ENDBRANCH   5  13
BRANCH   6  17
ATOM     17  O   UNL     1     -33.683   4.647   7.290  1.00  0.00    -0.454 OA
BRANCH  17  18
ATOM     18  C   UNL     1     -34.177   4.145   6.132  1.00  0.00    +0.303 C 
ATOM     19  O   UNL     1     -34.667   3.035   5.985  1.00  0.00    -0.253 OA
ATOM     20  C   UNL     1     -34.031   5.160   5.040  1.00  0.00    +0.139 C 
ENDBRANCH  17  18
ENDBRANCH   6  17
BRANCH   7  21
ATOM     21  O   UNL     1     -32.112   5.334   9.475  1.00  0.00    -0.453 OA
BRANCH  21  22
ATOM     22  C   UNL     1     -31.004   5.846   8.874  1.00  0.00    +0.303 C 
ATOM     23  O   UNL     1     -29.863   5.430   9.007  1.00  0.00    -0.253 OA
ATOM     24  C   UNL     1     -31.384   7.019   8.026  1.00  0.00    +0.139 C 
ENDBRANCH  21  22
ENDBRANCH   7  21
ENDBRANCH   1   2
BRANCH   1  25
ATOM     25  C   UNL     1     -31.295   1.069  10.557  1.00  0.00    +0.248 C 
ATOM     26  O   UNL     1     -30.273   1.721   9.750  1.00  0.00    -0.333 OA
ATOM     27  C   UNL     1     -30.809   1.247  12.024  1.00  0.00    +0.283 C 
ATOM     28  C   UNL     1     -29.263   2.279  10.620  1.00  0.00    +0.204 C 
ATOM     29  C   UNL     1     -29.304   1.416  11.874  1.00  0.00    +0.255 C 
BRANCH  25  30
ATOM     30  C   UNL     1     -31.407  -0.417  10.105  1.00  0.00    +0.303 C 
BRANCH  30  31
ATOM     31  O   UNL     1     -32.348  -1.173  10.900  1.00  0.00    -0.460 OA
BRANCH  31  32
ATOM     32  C   UNL     1     -31.873  -2.308  11.478  1.00  0.00    +0.302 C 
ATOM     33  O   UNL     1     -30.718  -2.509  11.814  1.00  0.00    -0.253 OA
ATOM     34  C   UNL     1     -32.969  -3.322  11.582  1.00  0.00    +0.139 C 
ENDBRANCH  31  32
ENDBRANCH  30  31
ENDBRANCH  25  30
BRANCH  27  35
ATOM     35  O   UNL     1     -31.138   0.141  12.884  1.00  0.00    -0.453 OA
BRANCH  35  36
ATOM     36  C   UNL     1     -30.758   0.268  14.183  1.00  0.00    +0.303 C 
ATOM     37  O   UNL     1     -30.852   1.293  14.845  1.00  0.00    -0.253 OA
ATOM     38  C   UNL     1     -30.214  -1.032  14.694  1.00  0.00    +0.139 C 
ENDBRANCH  35  36
ENDBRANCH  27  35
BRANCH  28  39
ATOM     39  C   UNL     1     -27.928   2.318   9.884  1.00  0.00    +0.269 C 
BRANCH  39  40
ATOM     40  O   UNL     1     -27.343   3.618  10.083  1.00  0.00    -0.463 OA
BRANCH  40  41
ATOM     41  C   UNL     1     -26.240   3.864   9.330  1.00  0.00    +0.302 C 
ATOM     42  O   UNL     1     -25.268   3.128   9.230  1.00  0.00    -0.253 OA
ATOM     43  C   UNL     1     -26.383   5.181   8.630  1.00  0.00    +0.139 C 
ENDBRANCH  40  41
ENDBRANCH  39  40
ENDBRANCH  28  39
BRANCH  29  44
ATOM     44  O   UNL     1     -28.710   0.117  11.664  1.00  0.00    -0.455 OA
BRANCH  44  45
ATOM     45  C   UNL     1     -27.529  -0.112  12.296  1.00  0.00    +0.303 C 
ATOM     46  O   UNL     1     -27.197   0.389  13.360  1.00  0.00    -0.253 OA
ATOM     47  C   UNL     1     -26.692  -1.059  11.496  1.00  0.00    +0.139 C 
ENDBRANCH  44  45
ENDBRANCH  29  44
ENDBRANCH   1  25
TORSDOF 21
ENDMDL
MODEL 9
REMARK VINA RESULT:    -6.100      3.192      7.550
REMARK INTER + INTRA:         -16.006
REMARK INTER:                 -13.464
REMARK INTRA:                  -2.542
REMARK UNBOUND:                -2.417
REMARK SMILES CC(=O)OC[C@@H]1O[C@@H](O[C@@]2(COC(C)=O)O[C@H](COC(C)=O)[C@H](OC(C)=O)[C@@H]2OC(C)=O)[C@H](OC(C)=O)[C@H](OC(C)=O)[C@H]1OC(C)=O
REMARK SMILES IDX 9 1 8 2 6 3 7 4 43 5 38 6 33 7 5 8 4 9 2 10 3 11 1 12 44 13
REMARK SMILES IDX 45 14 47 15 46 16 39 17 40 18 42 19 41 20 34 21 35 22 37 23
REMARK SMILES IDX 36 24 10 25 16 26 28 27 17 28 23 29 11 30 12 31 13 32 15 33
REMARK SMILES IDX 14 34 29 35 30 36 32 37 31 38 18 39 19 40 20 41 22 42 21 43
REMARK SMILES IDX 24 44 25 45 27 46 26 47
REMARK H PARENT
ROOT
ATOM      1  O   UNL     1     -32.737   5.452   9.788  1.00  0.00    -0.310 OA
ENDROOT
BRANCH   1   2
ATOM      2  C   UNL     1     -32.339   5.209   8.445  1.00  0.00    +0.299 C 
ATOM      3  C   UNL     1     -29.961   5.243   8.822  1.00  0.00    +0.204 C 
ATOM      4  O   UNL     1     -31.104   4.512   8.364  1.00  0.00    -0.338 OA
ATOM      5  C   UNL     1     -29.794   6.591   8.095  1.00  0.00    +0.253 C 
ATOM      6  C   UNL     1     -31.107   7.387   8.169  1.00  0.00    +0.266 C 
ATOM      7  C   UNL     1     -32.285   6.538   7.676  1.00  0.00    +0.277 C 
BRANCH   3   8
ATOM      8  C   UNL     1     -28.719   4.359   8.595  1.00  0.00    +0.269 C 
BRANCH   8   9
ATOM      9  O   UNL     1     -28.160   3.928   9.851  1.00  0.00    -0.463 OA
BRANCH   9  10
ATOM     10  C   UNL     1     -26.920   3.376   9.813  1.00  0.00    +0.302 C 
ATOM     11  O   UNL     1     -26.314   3.015   8.812  1.00  0.00    -0.253 OA
ATOM     12  C   UNL     1     -26.350   3.304  11.197  1.00  0.00    +0.139 C 
ENDBRANCH   9  10
ENDBRANCH   8   9
ENDBRANCH   3   8
BRANCH   5  13
ATOM     13  O   UNL     1     -28.737   7.316   8.772  1.00  0.00    -0.455 OA
BRANCH  13  14
ATOM     14  C   UNL     1     -27.606   7.576   8.066  1.00  0.00    +0.303 C 
ATOM     15  O   UNL     1     -26.600   6.883   8.051  1.00  0.00    -0.253 OA
ATOM     16  C   UNL     1     -27.768   8.851   7.293  1.00  0.00    +0.139 C 
ENDBRANCH  13  14
ENDBRANCH   5  13
BRANCH   6  17
ATOM     17  O   UNL     1     -31.034   8.554   7.316  1.00  0.00    -0.454 OA
BRANCH  17  18
ATOM     18  C   UNL     1     -31.728   9.658   7.685  1.00  0.00    +0.303 C 
ATOM     19  O   UNL     1     -32.896   9.682   8.043  1.00  0.00    -0.253 OA
ATOM     20  C   UNL     1     -30.845  10.864   7.586  1.00  0.00    +0.139 C 
ENDBRANCH  17  18
ENDBRANCH   6  17
BRANCH   7  21
ATOM     21  O   UNL     1     -32.126   6.224   6.270  1.00  0.00    -0.453 OA
BRANCH  21  22
ATOM     22  C   UNL     1     -33.009   6.807   5.416  1.00  0.00    +0.303 C 
ATOM     23  O   UNL     1     -32.772   7.750   4.676  1.00  0.00    -0.253 OA
ATOM     24  C   UNL     1     -34.340   6.129   5.523  1.00  0.00    +0.139 C 
ENDBRANCH  21  22
ENDBRANCH   7  21
ENDBRANCH   1   2
BRANCH   1  25
ATOM     25  C   UNL     1     -33.852   4.686  10.279  1.00  0.00    +0.248 C 
ATOM     26  O   UNL     1     -34.999   5.105   9.485  1.00  0.00    -0.333 OA
ATOM     27  C   UNL     1     -33.684   3.174   9.956  1.00  0.00    +0.283 C 
ATOM     28  C   UNL     1     -35.485   3.980   8.718  1.00  0.00    +0.204 C 
ATOM     29  C   UNL     1     -35.080   2.753   9.522  1.00  0.00    +0.255 C 
BRANCH  25  30
ATOM     30  C   UNL     1     -34.154   4.982  11.777  1.00  0.00    +0.303 C 
BRANCH  30  31
ATOM     31  O   UNL     1     -34.994   6.144  11.959  1.00  0.00    -0.460 OA
BRANCH  31  32
ATOM     32  C   UNL     1     -36.331   5.949  11.815  1.00  0.00    +0.302 C 
ATOM     33  O   UNL     1     -36.904   4.872  11.850  1.00  0.00    -0.253 OA
ATOM     34  C   UNL     1     -37.008   7.254  11.533  1.00  0.00    +0.139 C 
ENDBRANCH  31  32
ENDBRANCH  30  31
ENDBRANCH  25  30
BRANCH  27  35
ATOM     35  O   UNL     1     -33.211   2.391  11.067  1.00  0.00    -0.453 OA
BRANCH  35  36
ATOM     36  C   UNL     1     -32.198   1.526  10.793  1.00  0.00    +0.303 C 
ATOM     37  O   UNL     1     -31.743   1.309   9.678  1.00  0.00    -0.253 OA
ATOM     38  C   UNL     1     -31.711   0.882  12.056  1.00  0.00    +0.139 C 
ENDBRANCH  35  36
ENDBRANCH  27  35
BRANCH  28  39
ATOM     39  C   UNL     1     -36.980   4.147   8.469  1.00  0.00    +0.269 C 
BRANCH  39  40
ATOM     40  O   UNL     1     -37.286   5.553   8.499  1.00  0.00    -0.463 OA
BRANCH  40  41
ATOM     41  C   UNL     1     -38.546   5.850   8.911  1.00  0.00    +0.302 C 
ATOM     42  O   UNL     1     -39.059   6.960   8.884  1.00  0.00    -0.253 OA
ATOM     43  C   UNL     1     -39.226   4.612   9.408  1.00  0.00    +0.139 C 
ENDBRANCH  40  41
ENDBRANCH  39  40
ENDBRANCH  28  39
BRANCH  29  44
ATOM     44  O   UNL     1     -35.897   2.576  10.700  1.00  0.00    -0.455 OA
BRANCH  44  45
ATOM     45  C   UNL     1     -36.521   1.375  10.822  1.00  0.00    +0.303 C 
ATOM     46  O   UNL     1     -35.972   0.288  10.727  1.00  0.00    -0.253 OA
ATOM     47  C   UNL     1     -37.980   1.577  11.083  1.00  0.00    +0.139 C 
ENDBRANCH  44  45
ENDBRANCH  29  44
ENDBRANCH   1  25
TORSDOF 21
ENDMDL
