MODEL 1
REMARK VINA RESULT:    -4.695      0.000      0.000
REMARK INTER + INTRA:          -5.882
REMARK INTER:                  -5.793
REMARK INTRA:                  -0.089
REMARK UNBOUND:                -0.089
REMARK SMILES CCCCOC(N)=O
REMARK SMILES IDX 4 1 3 2 2 3 1 4 5 5 6 6 7 7 8 8
REMARK H PARENT 7 9 7 10
ROOT
ATOM      1  C   UNL     1     -28.175  12.131   5.393  1.00  0.00    +0.235 C 
ENDROOT
BRANCH   1   2
ATOM      2  C   UNL     1     -29.545  12.252   6.052  1.00  0.00    +0.041 C 
BRANCH   2   3
ATOM      3  C   UNL     1     -29.746  11.193   7.132  1.00  0.00    +0.000 C 
ATOM      4  C   UNL     1     -31.148  11.252   7.717  1.00  0.00    +0.004 C 
ENDBRANCH   2   3
ENDBRANCH   1   2
BRANCH   1   5
ATOM      5  O   UNL     1     -27.585  10.896   5.819  1.00  0.00    -0.450 OA
BRANCH   5   6
ATOM      6  C   UNL     1     -26.571  10.473   5.032  1.00  0.00    +0.404 C 
ATOM      7  N   UNL     1     -25.593  11.405   5.003  1.00  0.00    -0.335 N 
ATOM      8  O   UNL     1     -26.515   9.416   4.425  1.00  0.00    -0.225 OA
ATOM      9  H   UNL     1     -25.699  12.260   5.527  1.00  0.00    +0.163 HD
ATOM     10  H   UNL     1     -24.766  11.230   4.455  1.00  0.00    +0.163 HD
ENDBRANCH   5   6
ENDBRANCH   1   5
TORSDOF 4
ENDMDL
MODEL 2
REMARK VINA RESULT:    -4.617     13.528     13.981
REMARK INTER + INTRA:          -5.786
REMARK INTER:                  -5.682
REMARK INTRA:                  -0.105
REMARK UNBOUND:                -0.089
REMARK SMILES CCCCOC(N)=O
REMARK SMILES IDX 4 1 3 2 2 3 1 4 5 5 6 6 7 7 8 8
REMARK H PARENT 7 9 7 10
ROOT
ATOM      1  C   UNL     1     -33.414  -1.198   1.757  1.00  0.00    +0.235 C 
ENDROOT
BRANCH   1   2
ATOM      2  C   UNL     1     -33.955  -2.209   0.750  1.00  0.00    +0.041 C 
BRANCH   2   3
ATOM      3  C   UNL     1     -33.460  -1.916  -0.663  1.00  0.00    +0.000 C 
ATOM      4  C   UNL     1     -34.593  -1.453  -1.566  1.00  0.00    +0.004 C 
ENDBRANCH   2   3
ENDBRANCH   1   2
BRANCH   1   5
ATOM      5  O   UNL     1     -32.730  -0.170   1.029  1.00  0.00    -0.450 OA
BRANCH   5   6
ATOM      6  C   UNL     1     -32.756   1.039   1.632  1.00  0.00    +0.404 C 
ATOM      7  N   UNL     1     -33.288   0.923   2.869  1.00  0.00    -0.335 N 
ATOM      8  O   UNL     1     -32.367   2.094   1.161  1.00  0.00    -0.225 OA
ATOM      9  H   UNL     1     -33.592   0.021   3.202  1.00  0.00    +0.163 HD
ATOM     10  H   UNL     1     -33.374   1.746   3.444  1.00  0.00    +0.163 HD
ENDBRANCH   5   6
ENDBRANCH   1   5
TORSDOF 4
ENDMDL
MODEL 3
REMARK VINA RESULT:    -4.549      1.734      2.271
REMARK INTER + INTRA:          -5.701
REMARK INTER:                  -5.569
REMARK INTRA:                  -0.133
REMARK UNBOUND:                -0.089
REMARK SMILES CCCCOC(N)=O
REMARK SMILES IDX 4 1 3 2 2 3 1 4 5 5 6 6 7 7 8 8
REMARK H PARENT 7 9 7 10
ROOT
ATOM      1  C   UNL     1     -27.778   9.836   6.362  1.00  0.00    +0.235 C 
ENDROOT
BRANCH   1   2
ATOM      2  C   UNL     1     -28.817  10.491   7.266  1.00  0.00    +0.041 C 
BRANCH   2   3
ATOM      3  C   UNL     1     -29.653  11.520   6.511  1.00  0.00    +0.000 C 
ATOM      4  C   UNL     1     -28.784  12.409   5.634  1.00  0.00    +0.004 C 
ENDBRANCH   2   3
ENDBRANCH   1   2
BRANCH   1   5
ATOM      5  O   UNL     1     -26.613   9.562   7.152  1.00  0.00    -0.450 OA
BRANCH   5   6
ATOM      6  C   UNL     1     -25.451   9.673   6.473  1.00  0.00    +0.404 C 
ATOM      7  N   UNL     1     -25.470  10.789   5.710  1.00  0.00    -0.335 N 
ATOM      8  O   UNL     1     -24.506   8.903   6.516  1.00  0.00    -0.225 OA
ATOM      9  H   UNL     1     -26.282  11.387   5.716  1.00  0.00    +0.163 HD
ATOM     10  H   UNL     1     -24.667  11.009   5.142  1.00  0.00    +0.163 HD
ENDBRANCH   5   6
ENDBRANCH   1   5
TORSDOF 4
ENDMDL
MODEL 4
REMARK VINA RESULT:    -4.404     15.640     16.011
REMARK INTER + INTRA:          -5.523
REMARK INTER:                  -5.462
REMARK INTRA:                  -0.061
REMARK UNBOUND:                -0.089
REMARK SMILES CCCCOC(N)=O
REMARK SMILES IDX 4 1 3 2 2 3 1 4 5 5 6 6 7 7 8 8
REMARK H PARENT 7 9 7 10
ROOT
ATOM      1  C   UNL     1     -33.949  -1.679  -0.533  1.00  0.00    +0.235 C 
ENDROOT
BRANCH   1   2
ATOM      2  C   UNL     1     -34.358  -2.514   0.676  1.00  0.00    +0.041 C 
BRANCH   2   3
ATOM      3  C   UNL     1     -33.742  -1.978   1.966  1.00  0.00    +0.000 C 
ATOM      4  C   UNL     1     -32.892  -0.744   1.707  1.00  0.00    +0.004 C 
ENDBRANCH   2   3
ENDBRANCH   1   2
BRANCH   1   5
ATOM      5  O   UNL     1     -34.755  -2.086  -1.646  1.00  0.00    -0.450 OA
BRANCH   5   6
ATOM      6  C   UNL     1     -34.075  -2.182  -2.810  1.00  0.00    +0.404 C 
ATOM      7  N   UNL     1     -34.472  -1.205  -3.654  1.00  0.00    -0.335 N 
ATOM      8  O   UNL     1     -33.226  -3.011  -3.089  1.00  0.00    -0.225 OA
ATOM      9  H   UNL     1     -35.180  -0.548  -3.364  1.00  0.00    +0.163 HD
ATOM     10  H   UNL     1     -34.051  -1.146  -4.568  1.00  0.00    +0.163 HD
ENDBRANCH   5   6
ENDBRANCH   1   5
TORSDOF 4
ENDMDL
MODEL 5
REMARK VINA RESULT:    -4.264     14.068     14.434
REMARK INTER + INTRA:          -5.351
REMARK INTER:                  -5.285
REMARK INTRA:                  -0.066
REMARK UNBOUND:                -0.089
REMARK SMILES CCCCOC(N)=O
REMARK SMILES IDX 4 1 3 2 2 3 1 4 5 5 6 6 7 7 8 8
REMARK H PARENT 7 9 7 10
ROOT
ATOM      1  C   UNL     1     -33.219  -0.322   0.313  1.00  0.00    +0.235 C 
ENDROOT
BRANCH   1   2
ATOM      2  C   UNL     1     -32.702  -0.207   1.743  1.00  0.00    +0.041 C 
BRANCH   2   3
ATOM      3  C   UNL     1     -32.572   1.250   2.179  1.00  0.00    +0.000 C 
ATOM      4  C   UNL     1     -33.630   1.621   3.207  1.00  0.00    +0.004 C 
ENDBRANCH   2   3
ENDBRANCH   1   2
BRANCH   1   5
ATOM      5  O   UNL     1     -33.165  -1.703  -0.067  1.00  0.00    -0.450 OA
BRANCH   5   6
ATOM      6  C   UNL     1     -34.366  -2.229  -0.394  1.00  0.00    +0.404 C 
ATOM      7  N   UNL     1     -34.790  -3.052   0.591  1.00  0.00    -0.335 N 
ATOM      8  O   UNL     1     -34.999  -2.016  -1.414  1.00  0.00    -0.225 OA
ATOM      9  H   UNL     1     -34.220  -3.188   1.411  1.00  0.00    +0.163 HD
ATOM     10  H   UNL     1     -35.676  -3.521   0.490  1.00  0.00    +0.163 HD
ENDBRANCH   5   6
ENDBRANCH   1   5
TORSDOF 4
ENDMDL
MODEL 6
REMARK VINA RESULT:    -4.259      1.796      2.099
REMARK INTER + INTRA:          -5.345
REMARK INTER:                  -5.233
REMARK INTRA:                  -0.112
REMARK UNBOUND:                -0.089
REMARK SMILES CCCCOC(N)=O
REMARK SMILES IDX 4 1 3 2 2 3 1 4 5 5 6 6 7 7 8 8
REMARK H PARENT 7 9 7 10
ROOT
ATOM      1  C   UNL     1     -29.250  11.920   5.976  1.00  0.00    +0.235 C 
ENDROOT
BRANCH   1   2
ATOM      2  C   UNL     1     -29.911  11.015   7.009  1.00  0.00    +0.041 C 
BRANCH   2   3
ATOM      3  C   UNL     1     -29.129   9.720   7.207  1.00  0.00    +0.000 C 
ATOM      4  C   UNL     1     -29.947   8.506   6.792  1.00  0.00    +0.004 C 
ENDBRANCH   2   3
ENDBRANCH   1   2
BRANCH   1   5
ATOM      5  O   UNL     1     -27.865  11.558   5.890  1.00  0.00    -0.450 OA
BRANCH   5   6
ATOM      6  C   UNL     1     -27.187  12.209   4.919  1.00  0.00    +0.404 C 
ATOM      7  N   UNL     1     -27.794  13.385   4.645  1.00  0.00    -0.335 N 
ATOM      8  O   UNL     1     -26.178  11.822   4.354  1.00  0.00    -0.225 OA
ATOM      9  H   UNL     1     -28.627  13.649   5.148  1.00  0.00    +0.163 HD
ATOM     10  H   UNL     1     -27.401  13.986   3.938  1.00  0.00    +0.163 HD
ENDBRANCH   5   6
ENDBRANCH   1   5
TORSDOF 4
ENDMDL
MODEL 7
REMARK VINA RESULT:    -4.185      6.322      7.332
REMARK INTER + INTRA:          -5.252
REMARK INTER:                  -5.131
REMARK INTRA:                  -0.121
REMARK UNBOUND:                -0.089
REMARK SMILES CCCCOC(N)=O
REMARK SMILES IDX 4 1 3 2 2 3 1 4 5 5 6 6 7 7 8 8
REMARK H PARENT 7 9 7 10
ROOT
ATOM      1  C   UNL     1     -25.298   5.614   7.740  1.00  0.00    +0.235 C 
ENDROOT
BRANCH   1   2
ATOM      2  C   UNL     1     -26.467   6.578   7.572  1.00  0.00    +0.041 C 
BRANCH   2   3
ATOM      3  C   UNL     1     -26.132   7.706   6.600  1.00  0.00    +0.000 C 
ATOM      4  C   UNL     1     -24.640   7.997   6.576  1.00  0.00    +0.004 C 
ENDBRANCH   2   3
ENDBRANCH   1   2
BRANCH   1   5
ATOM      5  O   UNL     1     -25.133   5.357   9.141  1.00  0.00    -0.450 OA
BRANCH   5   6
ATOM      6  C   UNL     1     -25.767   4.244   9.572  1.00  0.00    +0.404 C 
ATOM      7  N   UNL     1     -26.203   4.426  10.838  1.00  0.00    -0.335 N 
ATOM      8  O   UNL     1     -25.937   3.214   8.942  1.00  0.00    -0.225 OA
ATOM      9  H   UNL     1     -26.031   5.302  11.307  1.00  0.00    +0.163 HD
ATOM     10  H   UNL     1     -26.698   3.679  11.298  1.00  0.00    +0.163 HD
ENDBRANCH   5   6
ENDBRANCH   1   5
TORSDOF 4
ENDMDL
MODEL 8
REMARK VINA RESULT:    -4.027      2.541      3.358
REMARK INTER + INTRA:          -5.057
REMARK INTER:                  -4.963
REMARK INTRA:                  -0.094
REMARK UNBOUND:                -0.089
REMARK SMILES CCCCOC(N)=O
REMARK SMILES IDX 4 1 3 2 2 3 1 4 5 5 6 6 7 7 8 8
REMARK H PARENT 7 9 7 10
ROOT
ATOM      1  C   UNL     1     -27.106   9.110   5.514  1.00  0.00    +0.235 C 
ENDROOT
BRANCH   1   2
ATOM      2  C   UNL     1     -27.723  10.450   5.900  1.00  0.00    +0.041 C 
BRANCH   2   3
ATOM      3  C   UNL     1     -26.938  11.622   5.319  1.00  0.00    +0.000 C 
ATOM      4  C   UNL     1     -27.798  12.871   5.211  1.00  0.00    +0.004 C 
ENDBRANCH   2   3
ENDBRANCH   1   2
BRANCH   1   5
ATOM      5  O   UNL     1     -25.682   9.274   5.472  1.00  0.00    -0.450 OA
BRANCH   5   6
ATOM      6  C   UNL     1     -25.027   8.635   6.466  1.00  0.00    +0.404 C 
ATOM      7  N   UNL     1     -23.943   8.001   5.968  1.00  0.00    -0.335 N 
ATOM      8  O   UNL     1     -25.340   8.612   7.645  1.00  0.00    -0.225 OA
ATOM      9  H   UNL     1     -23.737   8.057   4.983  1.00  0.00    +0.163 HD
ATOM     10  H   UNL     1     -23.351   7.478   6.594  1.00  0.00    +0.163 HD
ENDBRANCH   5   6
ENDBRANCH   1   5
TORSDOF 4
ENDMDL
MODEL 9
REMARK VINA RESULT:    -4.010      8.783      9.587
REMARK INTER + INTRA:          -5.037
REMARK INTER:                  -4.953
REMARK INTRA:                  -0.084
REMARK UNBOUND:                -0.089
REMARK SMILES CCCCOC(N)=O
REMARK SMILES IDX 4 1 3 2 2 3 1 4 5 5 6 6 7 7 8 8
REMARK H PARENT 7 9 7 10
ROOT
ATOM      1  C   UNL     1     -26.429   3.283   9.651  1.00  0.00    +0.235 C 
ENDROOT
BRANCH   1   2
ATOM      2  C   UNL     1     -25.530   4.454   9.270  1.00  0.00    +0.041 C 
BRANCH   2   3
ATOM      3  C   UNL     1     -26.273   5.483   8.422  1.00  0.00    +0.000 C 
ATOM      4  C   UNL     1     -25.459   5.895   7.205  1.00  0.00    +0.004 C 
ENDBRANCH   2   3
ENDBRANCH   1   2
BRANCH   1   5
ATOM      5  O   UNL     1     -25.989   2.130   8.921  1.00  0.00    -0.450 OA
BRANCH   5   6
ATOM      6  C   UNL     1     -25.327   1.224   9.674  1.00  0.00    +0.404 C 
ATOM      7  N   UNL     1     -24.062   1.085   9.218  1.00  0.00    -0.335 N 
ATOM      8  O   UNL     1     -25.772   0.606  10.626  1.00  0.00    -0.225 OA
ATOM      9  H   UNL     1     -23.753   1.625   8.425  1.00  0.00    +0.163 HD
ATOM     10  H   UNL     1     -23.442   0.440   9.682  1.00  0.00    +0.163 HD
ENDBRANCH   5   6
ENDBRANCH   1   5
TORSDOF 4
ENDMDL
