REMARK SMILES CCOC(=O)CSC#N
REMARK SMILES IDX 4 1 5 2 3 3 2 4 1 5 6 6 7 7 8 8 9 9
REMARK H PARENT
ROOT
ATOM      1  C   UNL     1       0.408  -0.913   0.132  1.00  0.00    +0.316 C 
ATOM      2  O   UNL     1       0.145  -2.090  -0.078  1.00  0.00    -0.251 OA
ENDROOT
BRANCH   1   3
ATOM      3  O   UNL     1      -0.506   0.097   0.184  1.00  0.00    -0.465 OA
BRANCH   3   4
ATOM      4  C   UNL     1      -1.858  -0.320  -0.043  1.00  0.00    +0.229 C 
ATOM      5  C   UNL     1      -2.751   0.903   0.034  1.00  0.00    +0.049 C 
ENDBRANCH   3   4
ENDBRANCH   1   3
BRANCH   1   6
ATOM      6  C   UNL     1       1.800  -0.379   0.347  1.00  0.00    +0.208 C 
BRANCH   6   7
ATOM      7  S   UNL     1       2.543   0.032  -1.252  1.00  0.00    -0.035 SA
ATOM      8  C   UNL     1       4.035   0.558  -0.663  1.00  0.00    +0.133 C 
ATOM      9  N   UNL     1       5.047   0.917  -0.229  1.00  0.00    -0.185 NA
ENDBRANCH   6   7
ENDBRANCH   1   6
TORSDOF 4
