MODEL 1
REMARK VINA RESULT:    -8.234      0.000      0.000
REMARK INTER + INTRA:         -13.672
REMARK INTER:                 -12.326
REMARK INTRA:                  -1.346
REMARK UNBOUND:                -1.346
REMARK SMILES CC(=O)N(CC(=O)N(CC(=O)O)c1ccc(Cl)cc1)c1ccc(Cl)cc1
REMARK SMILES IDX 6 1 7 2 5 3 4 4 2 5 3 6 1 7 20 8 21 9 26 10 22 11 25 12
REMARK SMILES IDX 23 13 24 14 8 15 9 16 10 17 11 18 12 19 13 21 14 22 19 23
REMARK SMILES IDX 15 24 18 25 16 26 17 27
REMARK H PARENT 12 20
ROOT
ATOM      1  C   UNL     1     -27.427   1.621  12.639  1.00  0.00    +0.247 C 
ATOM      2  O   UNL     1     -27.625   2.787  13.004  1.00  0.00    -0.272 OA
ENDROOT
BRANCH   1   3
ATOM      3  C   UNL     1     -26.006   1.221  12.179  1.00  0.00    +0.226 C 
BRANCH   3   4
ATOM      4  N   UNL     1     -25.704   1.270  10.733  1.00  0.00    -0.303 N 
BRANCH   4   5
ATOM      5  C   UNL     1     -25.410   0.105  10.003  1.00  0.00    +0.224 C 
ATOM      6  O   UNL     1     -26.159  -0.427   9.183  1.00  0.00    -0.275 OA
ATOM      7  C   UNL     1     -24.093  -0.579  10.296  1.00  0.00    +0.115 C 
ENDBRANCH   4   5
BRANCH   4   8
ATOM      8  C   UNL     1     -25.864   2.537  10.057  1.00  0.00    +0.044 A 
ATOM      9  C   UNL     1     -27.015   2.814   9.297  1.00  0.00    +0.028 A 
ATOM     10  C   UNL     1     -24.898   3.550  10.157  1.00  0.00    +0.028 A 
ATOM     11  C   UNL     1     -27.191   4.054   8.667  1.00  0.00    +0.022 A 
ATOM     12  C   UNL     1     -25.069   4.789   9.529  1.00  0.00    +0.022 A 
ATOM     13  C   UNL     1     -26.217   5.036   8.787  1.00  0.00    +0.041 A 
ATOM     14 Cl   UNL     1     -26.435   6.560   8.021  1.00  0.00    -0.084 Cl
ENDBRANCH   4   8
ENDBRANCH   3   4
ENDBRANCH   1   3
BRANCH   1  15
ATOM     15  N   UNL     1     -28.453   0.680  12.628  1.00  0.00    -0.300 N 
BRANCH  15  16
ATOM     16  C   UNL     1     -28.311  -0.457  13.550  1.00  0.00    +0.248 C 
BRANCH  16  17
ATOM     17  C   UNL     1     -28.040  -0.072  15.000  1.00  0.00    +0.323 C 
ATOM     18  O   UNL     1     -28.748   0.670  15.669  1.00  0.00    -0.250 OA
BRANCH  17  19
ATOM     19  O   UNL     1     -26.923  -0.594  15.545  1.00  0.00    -0.480 OA
ATOM     20  H   UNL     1     -27.070  -1.562  15.493  1.00  0.00    +0.296 HD
ENDBRANCH  17  19
ENDBRANCH  16  17
ENDBRANCH  15  16
BRANCH  15  21
ATOM     21  C   UNL     1     -29.728   0.876  12.033  1.00  0.00    +0.044 A 
ATOM     22  C   UNL     1     -30.892   0.648  12.778  1.00  0.00    +0.028 A 
ATOM     23  C   UNL     1     -29.845   1.342  10.718  1.00  0.00    +0.028 A 
ATOM     24  C   UNL     1     -32.153   0.846  12.207  1.00  0.00    +0.022 A 
ATOM     25  C   UNL     1     -31.105   1.547  10.147  1.00  0.00    +0.022 A 
ATOM     26  C   UNL     1     -32.254   1.292  10.892  1.00  0.00    +0.041 A 
ATOM     27 Cl   UNL     1     -33.802   1.543  10.189  1.00  0.00    -0.084 Cl
ENDBRANCH  15  21
ENDBRANCH   1  15
TORSDOF 9
ENDMDL
MODEL 2
REMARK VINA RESULT:    -8.119      5.989      7.676
REMARK INTER + INTRA:         -13.500
REMARK INTER:                 -12.009
REMARK INTRA:                  -1.491
REMARK UNBOUND:                -1.346
REMARK SMILES CC(=O)N(CC(=O)N(CC(=O)O)c1ccc(Cl)cc1)c1ccc(Cl)cc1
REMARK SMILES IDX 6 1 7 2 5 3 4 4 2 5 3 6 1 7 20 8 21 9 26 10 22 11 25 12
REMARK SMILES IDX 23 13 24 14 8 15 9 16 10 17 11 18 12 19 13 21 14 22 19 23
REMARK SMILES IDX 15 24 18 25 16 26 17 27
REMARK H PARENT 12 20
ROOT
ATOM      1  C   UNL     1     -32.347   4.455   9.352  1.00  0.00    +0.247 C 
ATOM      2  O   UNL     1     -31.309   3.956   8.899  1.00  0.00    -0.272 OA
ENDROOT
BRANCH   1   3
ATOM      3  C   UNL     1     -32.495   5.994   9.340  1.00  0.00    +0.226 C 
BRANCH   3   4
ATOM      4  N   UNL     1     -32.690   6.663   8.037  1.00  0.00    -0.303 N 
BRANCH   4   5
ATOM      5  C   UNL     1     -33.834   6.428   7.253  1.00  0.00    +0.224 C 
ATOM      6  O   UNL     1     -34.987   6.721   7.575  1.00  0.00    -0.275 OA
ATOM      7  C   UNL     1     -33.635   5.707   5.939  1.00  0.00    +0.115 C 
ENDBRANCH   4   5
BRANCH   4   8
ATOM      8  C   UNL     1     -31.738   7.682   7.657  1.00  0.00    +0.044 A 
ATOM      9  C   UNL     1     -32.160   8.981   7.322  1.00  0.00    +0.028 A 
ATOM     10  C   UNL     1     -30.358   7.427   7.639  1.00  0.00    +0.028 A 
ATOM     11  C   UNL     1     -31.238   9.982   6.986  1.00  0.00    +0.022 A 
ATOM     12  C   UNL     1     -29.434   8.423   7.303  1.00  0.00    +0.022 A 
ATOM     13  C   UNL     1     -29.878   9.698   6.979  1.00  0.00    +0.041 A 
ATOM     14 Cl   UNL     1     -28.747  10.927   6.574  1.00  0.00    -0.084 Cl
ENDBRANCH   4   8
ENDBRANCH   3   4
ENDBRANCH   1   3
BRANCH   1  15
ATOM     15  N   UNL     1     -33.367   3.662   9.872  1.00  0.00    -0.300 N 
BRANCH  15  16
ATOM     16  C   UNL     1     -32.956   2.556  10.750  1.00  0.00    +0.248 C 
BRANCH  16  17
ATOM     17  C   UNL     1     -33.035   1.173  10.114  1.00  0.00    +0.323 C 
ATOM     18  O   UNL     1     -32.134   0.648   9.473  1.00  0.00    -0.250 OA
BRANCH  17  19
ATOM     19  O   UNL     1     -34.202   0.519  10.279  1.00  0.00    -0.480 OA
ATOM     20  H   UNL     1     -34.503   0.347   9.362  1.00  0.00    +0.296 HD
ENDBRANCH  17  19
ENDBRANCH  16  17
ENDBRANCH  15  16
BRANCH  15  21
ATOM     21  C   UNL     1     -34.745   4.006   9.866  1.00  0.00    +0.044 A 
ATOM     22  C   UNL     1     -35.567   3.587   8.812  1.00  0.00    +0.028 A 
ATOM     23  C   UNL     1     -35.314   4.722  10.926  1.00  0.00    +0.028 A 
ATOM     24  C   UNL     1     -36.928   3.912   8.798  1.00  0.00    +0.022 A 
ATOM     25  C   UNL     1     -36.674   5.042  10.917  1.00  0.00    +0.022 A 
ATOM     26  C   UNL     1     -37.475   4.641   9.850  1.00  0.00    +0.041 A 
ATOM     27 Cl   UNL     1     -39.148   5.036   9.840  1.00  0.00    -0.084 Cl
ENDBRANCH  15  21
ENDBRANCH   1  15
TORSDOF 9
ENDMDL
MODEL 3
REMARK VINA RESULT:    -8.072      1.141      6.147
REMARK INTER + INTRA:         -13.429
REMARK INTER:                 -12.318
REMARK INTRA:                  -1.111
REMARK UNBOUND:                -1.346
REMARK SMILES CC(=O)N(CC(=O)N(CC(=O)O)c1ccc(Cl)cc1)c1ccc(Cl)cc1
REMARK SMILES IDX 6 1 7 2 5 3 4 4 2 5 3 6 1 7 20 8 21 9 26 10 22 11 25 12
REMARK SMILES IDX 23 13 24 14 8 15 9 16 10 17 11 18 12 19 13 21 14 22 19 23
REMARK SMILES IDX 15 24 18 25 16 26 17 27
REMARK H PARENT 12 20
ROOT
ATOM      1  C   UNL     1     -27.253   1.908  12.245  1.00  0.00    +0.247 C 
ATOM      2  O   UNL     1     -27.644   2.757  13.055  1.00  0.00    -0.272 OA
ENDROOT
BRANCH   1   3
ATOM      3  C   UNL     1     -27.933   0.520  12.242  1.00  0.00    +0.226 C 
BRANCH   3   4
ATOM      4  N   UNL     1     -29.287   0.408  12.825  1.00  0.00    -0.303 N 
BRANCH   4   5
ATOM      5  C   UNL     1     -29.485  -0.049  14.140  1.00  0.00    +0.224 C 
ATOM      6  O   UNL     1     -29.743  -1.211  14.456  1.00  0.00    -0.275 OA
ATOM      7  C   UNL     1     -29.435   0.983  15.244  1.00  0.00    +0.115 C 
ENDBRANCH   4   5
BRANCH   4   8
ATOM      8  C   UNL     1     -30.394   0.922  12.053  1.00  0.00    +0.044 A 
ATOM      9  C   UNL     1     -30.213   1.371  10.733  1.00  0.00    +0.028 A 
ATOM     10  C   UNL     1     -31.696   0.964  12.576  1.00  0.00    +0.028 A 
ATOM     11  C   UNL     1     -31.290   1.839   9.967  1.00  0.00    +0.022 A 
ATOM     12  C   UNL     1     -32.775   1.431  11.815  1.00  0.00    +0.022 A 
ATOM     13  C   UNL     1     -32.567   1.865  10.513  1.00  0.00    +0.041 A 
ATOM     14 Cl   UNL     1     -33.890   2.433   9.573  1.00  0.00    -0.084 Cl
ENDBRANCH   4   8
ENDBRANCH   3   4
ENDBRANCH   1   3
BRANCH   1  15
ATOM     15  N   UNL     1     -26.217   2.178  11.354  1.00  0.00    -0.300 N 
BRANCH  15  16
ATOM     16  C   UNL     1     -25.204   1.125  11.186  1.00  0.00    +0.248 C 
BRANCH  16  17
ATOM     17  C   UNL     1     -25.063   0.596   9.764  1.00  0.00    +0.323 C 
ATOM     18  O   UNL     1     -25.923  -0.038   9.167  1.00  0.00    -0.250 OA
BRANCH  17  19
ATOM     19  O   UNL     1     -23.887   0.853   9.158  1.00  0.00    -0.480 OA
ATOM     20  H   UNL     1     -23.424   1.443   9.790  1.00  0.00    +0.296 HD
ENDBRANCH  17  19
ENDBRANCH  16  17
ENDBRANCH  15  16
BRANCH  15  21
ATOM     21  C   UNL     1     -26.220   3.231  10.401  1.00  0.00    +0.044 A 
ATOM     22  C   UNL     1     -25.111   4.078  10.287  1.00  0.00    +0.028 A 
ATOM     23  C   UNL     1     -27.303   3.412   9.532  1.00  0.00    +0.028 A 
ATOM     24  C   UNL     1     -25.099   5.113   9.347  1.00  0.00    +0.022 A 
ATOM     25  C   UNL     1     -27.290   4.441   8.587  1.00  0.00    +0.022 A 
ATOM     26  C   UNL     1     -26.190   5.292   8.502  1.00  0.00    +0.041 A 
ATOM     27 Cl   UNL     1     -26.176   6.559   7.340  1.00  0.00    -0.084 Cl
ENDBRANCH  15  21
ENDBRANCH   1  15
TORSDOF 9
ENDMDL
MODEL 4
REMARK VINA RESULT:    -7.867      2.514      3.971
REMARK INTER + INTRA:         -13.123
REMARK INTER:                 -12.112
REMARK INTRA:                  -1.011
REMARK UNBOUND:                -1.346
REMARK SMILES CC(=O)N(CC(=O)N(CC(=O)O)c1ccc(Cl)cc1)c1ccc(Cl)cc1
REMARK SMILES IDX 6 1 7 2 5 3 4 4 2 5 3 6 1 7 20 8 21 9 26 10 22 11 25 12
REMARK SMILES IDX 23 13 24 14 8 15 9 16 10 17 11 18 12 19 13 21 14 22 19 23
REMARK SMILES IDX 15 24 18 25 16 26 17 27
REMARK H PARENT 12 20
ROOT
ATOM      1  C   UNL     1     -26.576   1.523   9.312  1.00  0.00    +0.247 C 
ATOM      2  O   UNL     1     -25.443   1.365   8.841  1.00  0.00    -0.272 OA
ENDROOT
BRANCH   1   3
ATOM      3  C   UNL     1     -27.239   2.914   9.192  1.00  0.00    +0.226 C 
BRANCH   3   4
ATOM      4  N   UNL     1     -26.484   4.088   9.677  1.00  0.00    -0.303 N 
BRANCH   4   5
ATOM      5  C   UNL     1     -25.767   4.053  10.886  1.00  0.00    +0.224 C 
ATOM      6  O   UNL     1     -26.242   4.283  12.000  1.00  0.00    -0.275 OA
ATOM      7  C   UNL     1     -24.284   3.769  10.802  1.00  0.00    +0.115 C 
ENDBRANCH   4   5
BRANCH   4   8
ATOM      8  C   UNL     1     -26.382   5.230   8.798  1.00  0.00    +0.044 A 
ATOM      9  C   UNL     1     -25.174   5.544   8.151  1.00  0.00    +0.028 A 
ATOM     10  C   UNL     1     -27.490   6.051   8.530  1.00  0.00    +0.028 A 
ATOM     11  C   UNL     1     -25.079   6.631   7.271  1.00  0.00    +0.022 A 
ATOM     12  C   UNL     1     -27.399   7.138   7.652  1.00  0.00    +0.022 A 
ATOM     13  C   UNL     1     -26.194   7.422   7.025  1.00  0.00    +0.041 A 
ATOM     14 Cl   UNL     1     -26.080   8.751   5.940  1.00  0.00    -0.084 Cl
ENDBRANCH   4   8
ENDBRANCH   3   4
ENDBRANCH   1   3
BRANCH   1  15
ATOM     15  N   UNL     1     -27.250   0.483   9.947  1.00  0.00    -0.300 N 
BRANCH  15  16
ATOM     16  C   UNL     1     -26.874  -0.882   9.551  1.00  0.00    +0.248 C 
BRANCH  16  17
ATOM     17  C   UNL     1     -26.066  -1.649  10.591  1.00  0.00    +0.323 C 
ATOM     18  O   UNL     1     -26.498  -2.573  11.268  1.00  0.00    -0.250 OA
BRANCH  17  19
ATOM     19  O   UNL     1     -24.792  -1.240  10.761  1.00  0.00    -0.480 OA
ATOM     20  H   UNL     1     -24.344  -1.531   9.939  1.00  0.00    +0.296 HD
ENDBRANCH  17  19
ENDBRANCH  16  17
ENDBRANCH  15  16
BRANCH  15  21
ATOM     21  C   UNL     1     -28.034   0.623  11.123  1.00  0.00    +0.044 A 
ATOM     22  C   UNL     1     -29.369   0.201  11.131  1.00  0.00    +0.028 A 
ATOM     23  C   UNL     1     -27.479   1.137  12.301  1.00  0.00    +0.028 A 
ATOM     24  C   UNL     1     -30.149   0.326  12.285  1.00  0.00    +0.022 A 
ATOM     25  C   UNL     1     -28.254   1.257  13.458  1.00  0.00    +0.022 A 
ATOM     26  C   UNL     1     -29.588   0.857  13.443  1.00  0.00    +0.041 A 
ATOM     27 Cl   UNL     1     -30.542   1.005  14.867  1.00  0.00    -0.084 Cl
ENDBRANCH  15  21
ENDBRANCH   1  15
TORSDOF 9
ENDMDL
MODEL 5
REMARK VINA RESULT:    -7.840      1.363      6.221
REMARK INTER + INTRA:         -13.082
REMARK INTER:                 -12.027
REMARK INTRA:                  -1.055
REMARK UNBOUND:                -1.346
REMARK SMILES CC(=O)N(CC(=O)N(CC(=O)O)c1ccc(Cl)cc1)c1ccc(Cl)cc1
REMARK SMILES IDX 6 1 7 2 5 3 4 4 2 5 3 6 1 7 20 8 21 9 26 10 22 11 25 12
REMARK SMILES IDX 23 13 24 14 8 15 9 16 10 17 11 18 12 19 13 21 14 22 19 23
REMARK SMILES IDX 15 24 18 25 16 26 17 27
REMARK H PARENT 12 20
ROOT
ATOM      1  C   UNL     1     -27.006   1.614  11.755  1.00  0.00    +0.247 C 
ATOM      2  O   UNL     1     -27.705   2.253  12.551  1.00  0.00    -0.272 OA
ENDROOT
BRANCH   1   3
ATOM      3  C   UNL     1     -27.336   0.123  11.512  1.00  0.00    +0.226 C 
BRANCH   3   4
ATOM      4  N   UNL     1     -28.539  -0.437  12.162  1.00  0.00    -0.303 N 
BRANCH   4   5
ATOM      5  C   UNL     1     -28.456  -1.156  13.368  1.00  0.00    +0.224 C 
ATOM      6  O   UNL     1     -28.120  -0.681  14.455  1.00  0.00    -0.275 OA
ATOM      7  C   UNL     1     -28.744  -2.639  13.310  1.00  0.00    +0.115 C 
ENDBRANCH   4   5
BRANCH   4   8
ATOM      8  C   UNL     1     -29.825  -0.099  11.598  1.00  0.00    +0.044 A 
ATOM      9  C   UNL     1     -30.797   0.578  12.358  1.00  0.00    +0.028 A 
ATOM     10  C   UNL     1     -30.145  -0.402  10.265  1.00  0.00    +0.028 A 
ATOM     11  C   UNL     1     -32.033   0.939  11.805  1.00  0.00    +0.022 A 
ATOM     12  C   UNL     1     -31.379  -0.045   9.709  1.00  0.00    +0.022 A 
ATOM     13  C   UNL     1     -32.318   0.626  10.482  1.00  0.00    +0.041 A 
ATOM     14 Cl   UNL     1     -33.832   1.074   9.801  1.00  0.00    -0.084 Cl
ENDBRANCH   4   8
ENDBRANCH   3   4
ENDBRANCH   1   3
BRANCH   1  15
ATOM     15  N   UNL     1     -25.937   2.208  11.089  1.00  0.00    -0.300 N 
BRANCH  15  16
ATOM     16  C   UNL     1     -24.671   1.459  11.081  1.00  0.00    +0.248 C 
BRANCH  16  17
ATOM     17  C   UNL     1     -24.148   1.106   9.694  1.00  0.00    +0.323 C 
ATOM     18  O   UNL     1     -23.034   1.392   9.275  1.00  0.00    -0.250 OA
BRANCH  17  19
ATOM     19  O   UNL     1     -25.008   0.444   8.895  1.00  0.00    -0.480 OA
ATOM     20  H   UNL     1     -24.725  -0.492   8.973  1.00  0.00    +0.296 HD
ENDBRANCH  17  19
ENDBRANCH  16  17
ENDBRANCH  15  16
BRANCH  15  21
ATOM     21  C   UNL     1     -26.047   3.303  10.191  1.00  0.00    +0.044 A 
ATOM     22  C   UNL     1     -25.021   4.253  10.114  1.00  0.00    +0.028 A 
ATOM     23  C   UNL     1     -27.152   3.427   9.340  1.00  0.00    +0.028 A 
ATOM     24  C   UNL     1     -25.114   5.331   9.227  1.00  0.00    +0.022 A 
ATOM     25  C   UNL     1     -27.244   4.500   8.448  1.00  0.00    +0.022 A 
ATOM     26  C   UNL     1     -26.227   5.451   8.400  1.00  0.00    +0.041 A 
ATOM     27 Cl   UNL     1     -26.342   6.771   7.304  1.00  0.00    -0.084 Cl
ENDBRANCH  15  21
ENDBRANCH   1  15
TORSDOF 9
ENDMDL
MODEL 6
REMARK VINA RESULT:    -7.815      5.943      7.815
REMARK INTER + INTRA:         -13.044
REMARK INTER:                 -11.885
REMARK INTRA:                  -1.159
REMARK UNBOUND:                -1.346
REMARK SMILES CC(=O)N(CC(=O)N(CC(=O)O)c1ccc(Cl)cc1)c1ccc(Cl)cc1
REMARK SMILES IDX 6 1 7 2 5 3 4 4 2 5 3 6 1 7 20 8 21 9 26 10 22 11 25 12
REMARK SMILES IDX 23 13 24 14 8 15 9 16 10 17 11 18 12 19 13 21 14 22 19 23
REMARK SMILES IDX 15 24 18 25 16 26 17 27
REMARK H PARENT 12 20
ROOT
ATOM      1  C   UNL     1     -33.128   4.793   9.647  1.00  0.00    +0.247 C 
ATOM      2  O   UNL     1     -33.724   5.477  10.488  1.00  0.00    -0.272 OA
ENDROOT
BRANCH   1   3
ATOM      3  C   UNL     1     -32.148   5.498   8.681  1.00  0.00    +0.226 C 
BRANCH   3   4
ATOM      4  N   UNL     1     -32.695   6.510   7.752  1.00  0.00    -0.303 N 
BRANCH   4   5
ATOM      5  C   UNL     1     -33.962   6.358   7.162  1.00  0.00    +0.224 C 
ATOM      6  O   UNL     1     -35.034   6.631   7.704  1.00  0.00    -0.275 OA
ATOM      7  C   UNL     1     -34.011   5.757   5.775  1.00  0.00    +0.115 C 
ENDBRANCH   4   5
BRANCH   4   8
ATOM      8  C   UNL     1     -31.949   7.735   7.581  1.00  0.00    +0.044 A 
ATOM      9  C   UNL     1     -32.575   8.989   7.703  1.00  0.00    +0.028 A 
ATOM     10  C   UNL     1     -30.570   7.725   7.321  1.00  0.00    +0.028 A 
ATOM     11  C   UNL     1     -31.849  10.182   7.572  1.00  0.00    +0.022 A 
ATOM     12  C   UNL     1     -29.841   8.914   7.188  1.00  0.00    +0.022 A 
ATOM     13  C   UNL     1     -30.485  10.137   7.316  1.00  0.00    +0.041 A 
ATOM     14 Cl   UNL     1     -29.593  11.599   7.162  1.00  0.00    -0.084 Cl
ENDBRANCH   4   8
ENDBRANCH   3   4
ENDBRANCH   1   3
BRANCH   1  15
ATOM     15  N   UNL     1     -33.329   3.418   9.553  1.00  0.00    -0.300 N 
BRANCH  15  16
ATOM     16  C   UNL     1     -34.073   2.942   8.377  1.00  0.00    +0.248 C 
BRANCH  16  17
ATOM     17  C   UNL     1     -35.548   2.653   8.630  1.00  0.00    +0.323 C 
ATOM     18  O   UNL     1     -36.421   3.507   8.716  1.00  0.00    -0.250 OA
BRANCH  17  19
ATOM     19  O   UNL     1     -35.873   1.354   8.779  1.00  0.00    -0.480 OA
ATOM     20  H   UNL     1     -35.846   1.001   7.865  1.00  0.00    +0.296 HD
ENDBRANCH  17  19
ENDBRANCH  16  17
ENDBRANCH  15  16
BRANCH  15  21
ATOM     21  C   UNL     1     -32.638   2.443  10.320  1.00  0.00    +0.044 A 
ATOM     22  C   UNL     1     -31.362   2.016   9.928  1.00  0.00    +0.028 A 
ATOM     23  C   UNL     1     -33.192   1.928  11.498  1.00  0.00    +0.028 A 
ATOM     24  C   UNL     1     -30.668   1.063  10.680  1.00  0.00    +0.022 A 
ATOM     25  C   UNL     1     -32.497   0.980  12.255  1.00  0.00    +0.022 A 
ATOM     26  C   UNL     1     -31.240   0.547  11.839  1.00  0.00    +0.041 A 
ATOM     27 Cl   UNL     1     -30.386  -0.620  12.769  1.00  0.00    -0.084 Cl
ENDBRANCH  15  21
ENDBRANCH   1  15
TORSDOF 9
ENDMDL
MODEL 7
REMARK VINA RESULT:    -7.777      3.630      5.962
REMARK INTER + INTRA:         -12.987
REMARK INTER:                 -11.759
REMARK INTRA:                  -1.228
REMARK UNBOUND:                -1.346
REMARK SMILES CC(=O)N(CC(=O)N(CC(=O)O)c1ccc(Cl)cc1)c1ccc(Cl)cc1
REMARK SMILES IDX 6 1 7 2 5 3 4 4 2 5 3 6 1 7 20 8 21 9 26 10 22 11 25 12
REMARK SMILES IDX 23 13 24 14 8 15 9 16 10 17 11 18 12 19 13 21 14 22 19 23
REMARK SMILES IDX 15 24 18 25 16 26 17 27
REMARK H PARENT 12 20
ROOT
ATOM      1  C   UNL     1     -26.106   1.117   9.902  1.00  0.00    +0.247 C 
ATOM      2  O   UNL     1     -26.103   0.936   8.678  1.00  0.00    -0.272 OA
ENDROOT
BRANCH   1   3
ATOM      3  C   UNL     1     -25.120   0.304  10.773  1.00  0.00    +0.226 C 
BRANCH   3   4
ATOM      4  N   UNL     1     -23.727   0.162  10.297  1.00  0.00    -0.303 N 
BRANCH   4   5
ATOM      5  C   UNL     1     -22.945   1.284   9.969  1.00  0.00    +0.224 C 
ATOM      6  O   UNL     1     -22.373   1.458   8.891  1.00  0.00    -0.275 OA
ATOM      7  C   UNL     1     -22.745   2.326  11.046  1.00  0.00    +0.115 C 
ENDBRANCH   4   5
BRANCH   4   8
ATOM      8  C   UNL     1     -23.142  -1.158  10.321  1.00  0.00    +0.044 A 
ATOM      9  C   UNL     1     -21.889  -1.387  10.919  1.00  0.00    +0.028 A 
ATOM     10  C   UNL     1     -23.810  -2.267   9.780  1.00  0.00    +0.028 A 
ATOM     11  C   UNL     1     -21.332  -2.672  10.974  1.00  0.00    +0.022 A 
ATOM     12  C   UNL     1     -23.257  -3.552   9.832  1.00  0.00    +0.022 A 
ATOM     13  C   UNL     1     -22.020  -3.749  10.431  1.00  0.00    +0.041 A 
ATOM     14 Cl   UNL     1     -21.341  -5.327  10.505  1.00  0.00    -0.084 Cl
ENDBRANCH   4   8
ENDBRANCH   3   4
ENDBRANCH   1   3
BRANCH   1  15
ATOM     15  N   UNL     1     -26.977   2.024  10.500  1.00  0.00    -0.300 N 
BRANCH  15  16
ATOM     16  C   UNL     1     -27.206   3.286   9.782  1.00  0.00    +0.248 C 
BRANCH  16  17
ATOM     17  C   UNL     1     -25.959   4.137   9.574  1.00  0.00    +0.323 C 
ATOM     18  O   UNL     1     -25.443   4.364   8.487  1.00  0.00    -0.250 OA
BRANCH  17  19
ATOM     19  O   UNL     1     -25.406   4.648  10.692  1.00  0.00    -0.480 OA
ATOM     20  H   UNL     1     -26.147   4.659  11.334  1.00  0.00    +0.296 HD
ENDBRANCH  17  19
ENDBRANCH  16  17
ENDBRANCH  15  16
BRANCH  15  21
ATOM     21  C   UNL     1     -27.866   1.714  11.565  1.00  0.00    +0.044 A 
ATOM     22  C   UNL     1     -29.021   0.962  11.317  1.00  0.00    +0.028 A 
ATOM     23  C   UNL     1     -27.583   2.110  12.877  1.00  0.00    +0.028 A 
ATOM     24  C   UNL     1     -29.899   0.643  12.358  1.00  0.00    +0.022 A 
ATOM     25  C   UNL     1     -28.456   1.787  13.920  1.00  0.00    +0.022 A 
ATOM     26  C   UNL     1     -29.614   1.060  13.655  1.00  0.00    +0.041 A 
ATOM     27 Cl   UNL     1     -30.688   0.664  14.938  1.00  0.00    -0.084 Cl
ENDBRANCH  15  21
ENDBRANCH   1  15
TORSDOF 9
ENDMDL
MODEL 8
REMARK VINA RESULT:    -7.687      2.416      6.039
REMARK INTER + INTRA:         -12.853
REMARK INTER:                 -11.843
REMARK INTRA:                  -1.010
REMARK UNBOUND:                -1.346
REMARK SMILES CC(=O)N(CC(=O)N(CC(=O)O)c1ccc(Cl)cc1)c1ccc(Cl)cc1
REMARK SMILES IDX 6 1 7 2 5 3 4 4 2 5 3 6 1 7 20 8 21 9 26 10 22 11 25 12
REMARK SMILES IDX 23 13 24 14 8 15 9 16 10 17 11 18 12 19 13 21 14 22 19 23
REMARK SMILES IDX 15 24 18 25 16 26 17 27
REMARK H PARENT 12 20
ROOT
ATOM      1  C   UNL     1     -29.732   1.017  12.527  1.00  0.00    +0.247 C 
ATOM      2  O   UNL     1     -30.683   0.949  13.315  1.00  0.00    -0.272 OA
ENDROOT
BRANCH   1   3
ATOM      3  C   UNL     1     -30.017   1.382  11.052  1.00  0.00    +0.226 C 
BRANCH   3   4
ATOM      4  N   UNL     1     -31.226   0.815  10.417  1.00  0.00    -0.303 N 
BRANCH   4   5
ATOM      5  C   UNL     1     -31.264  -0.515   9.963  1.00  0.00    +0.224 C 
ATOM      6  O   UNL     1     -30.985  -0.882   8.820  1.00  0.00    -0.275 OA
ATOM      7  C   UNL     1     -31.742  -1.565  10.940  1.00  0.00    +0.115 C 
ENDBRANCH   4   5
BRANCH   4   8
ATOM      8  C   UNL     1     -32.422   1.626  10.410  1.00  0.00    +0.044 A 
ATOM      9  C   UNL     1     -33.494   1.347  11.277  1.00  0.00    +0.028 A 
ATOM     10  C   UNL     1     -32.548   2.740   9.565  1.00  0.00    +0.028 A 
ATOM     11  C   UNL     1     -34.642   2.151  11.298  1.00  0.00    +0.022 A 
ATOM     12  C   UNL     1     -33.694   3.545   9.582  1.00  0.00    +0.022 A 
ATOM     13  C   UNL     1     -34.736   3.248  10.451  1.00  0.00    +0.041 A 
ATOM     14 Cl   UNL     1     -36.140   4.238  10.481  1.00  0.00    -0.084 Cl
ENDBRANCH   4   8
ENDBRANCH   3   4
ENDBRANCH   1   3
BRANCH   1  15
ATOM     15  N   UNL     1     -28.427   0.765  12.942  1.00  0.00    -0.300 N 
BRANCH  15  16
ATOM     16  C   UNL     1     -28.218  -0.438  13.761  1.00  0.00    +0.248 C 
BRANCH  16  17
ATOM     17  C   UNL     1     -27.992  -0.169  15.244  1.00  0.00    +0.323 C 
ATOM     18  O   UNL     1     -28.738   0.493  15.954  1.00  0.00    -0.250 OA
BRANCH  17  19
ATOM     19  O   UNL     1     -26.873  -0.703  15.772  1.00  0.00    -0.480 OA
ATOM     20  H   UNL     1     -26.796  -1.571  15.324  1.00  0.00    +0.296 HD
ENDBRANCH  17  19
ENDBRANCH  16  17
ENDBRANCH  15  16
BRANCH  15  21
ATOM     21  C   UNL     1     -27.270   1.392  12.405  1.00  0.00    +0.044 A 
ATOM     22  C   UNL     1     -27.099   2.776  12.531  1.00  0.00    +0.028 A 
ATOM     23  C   UNL     1     -26.265   0.639  11.786  1.00  0.00    +0.028 A 
ATOM     24  C   UNL     1     -25.961   3.403  12.015  1.00  0.00    +0.022 A 
ATOM     25  C   UNL     1     -25.123   1.263  11.275  1.00  0.00    +0.022 A 
ATOM     26  C   UNL     1     -24.979   2.644  11.385  1.00  0.00    +0.041 A 
ATOM     27 Cl   UNL     1     -23.575   3.411  10.755  1.00  0.00    -0.084 Cl
ENDBRANCH  15  21
ENDBRANCH   1  15
TORSDOF 9
ENDMDL
MODEL 9
REMARK VINA RESULT:    -7.448      6.763      8.869
REMARK INTER + INTRA:         -12.495
REMARK INTER:                 -11.595
REMARK INTRA:                  -0.900
REMARK UNBOUND:                -1.346
REMARK SMILES CC(=O)N(CC(=O)N(CC(=O)O)c1ccc(Cl)cc1)c1ccc(Cl)cc1
REMARK SMILES IDX 6 1 7 2 5 3 4 4 2 5 3 6 1 7 20 8 21 9 26 10 22 11 25 12
REMARK SMILES IDX 23 13 24 14 8 15 9 16 10 17 11 18 12 19 13 21 14 22 19 23
REMARK SMILES IDX 15 24 18 25 16 26 17 27
REMARK H PARENT 12 20
ROOT
ATOM      1  C   UNL     1     -32.591   8.032   7.377  1.00  0.00    +0.247 C 
ATOM      2  O   UNL     1     -32.837   9.026   8.072  1.00  0.00    -0.272 OA
ENDROOT
BRANCH   1   3
ATOM      3  C   UNL     1     -31.502   8.144   6.285  1.00  0.00    +0.226 C 
BRANCH   3   4
ATOM      4  N   UNL     1     -30.419   9.131   6.482  1.00  0.00    -0.303 N 
BRANCH   4   5
ATOM      5  C   UNL     1     -30.688  10.508   6.581  1.00  0.00    +0.224 C 
ATOM      6  O   UNL     1     -31.382  11.154   5.794  1.00  0.00    -0.275 OA
ATOM      7  C   UNL     1     -30.023  11.262   7.711  1.00  0.00    +0.115 C 
ENDBRANCH   4   5
BRANCH   4   8
ATOM      8  C   UNL     1     -29.086   8.626   6.717  1.00  0.00    +0.044 A 
ATOM      9  C   UNL     1     -28.822   7.739   7.776  1.00  0.00    +0.028 A 
ATOM     10  C   UNL     1     -28.012   8.973   5.883  1.00  0.00    +0.028 A 
ATOM     11  C   UNL     1     -27.538   7.219   7.988  1.00  0.00    +0.022 A 
ATOM     12  C   UNL     1     -26.727   8.457   6.092  1.00  0.00    +0.022 A 
ATOM     13  C   UNL     1     -26.496   7.580   7.144  1.00  0.00    +0.041 A 
ATOM     14 Cl   UNL     1     -24.922   6.938   7.399  1.00  0.00    -0.084 Cl
ENDBRANCH   4   8
ENDBRANCH   3   4
ENDBRANCH   1   3
BRANCH   1  15
ATOM     15  N   UNL     1     -33.276   6.833   7.556  1.00  0.00    -0.300 N 
BRANCH  15  16
ATOM     16  C   UNL     1     -34.477   6.633   6.732  1.00  0.00    +0.248 C 
BRANCH  16  17
ATOM     17  C   UNL     1     -34.203   6.157   5.310  1.00  0.00    +0.323 C 
ATOM     18  O   UNL     1     -33.719   5.071   5.019  1.00  0.00    -0.250 OA
BRANCH  17  19
ATOM     19  O   UNL     1     -34.517   7.028   4.330  1.00  0.00    -0.480 OA
ATOM     20  H   UNL     1     -33.714   7.585   4.249  1.00  0.00    +0.296 HD
ENDBRANCH  17  19
ENDBRANCH  16  17
ENDBRANCH  15  16
BRANCH  15  21
ATOM     21  C   UNL     1     -32.758   5.696   8.232  1.00  0.00    +0.044 A 
ATOM     22  C   UNL     1     -33.602   4.625   8.553  1.00  0.00    +0.028 A 
ATOM     23  C   UNL     1     -31.397   5.602   8.545  1.00  0.00    +0.028 A 
ATOM     24  C   UNL     1     -33.102   3.497   9.210  1.00  0.00    +0.022 A 
ATOM     25  C   UNL     1     -30.893   4.472   9.196  1.00  0.00    +0.022 A 
ATOM     26  C   UNL     1     -31.750   3.426   9.532  1.00  0.00    +0.041 A 
ATOM     27 Cl   UNL     1     -31.131   2.037  10.333  1.00  0.00    -0.084 Cl
ENDBRANCH  15  21
ENDBRANCH   1  15
TORSDOF 9
ENDMDL
