MODEL 1
REMARK VINA RESULT:    -7.431      0.000      0.000
REMARK INTER + INTRA:         -16.964
REMARK INTER:                 -14.381
REMARK INTRA:                  -2.583
REMARK UNBOUND:                -2.583
REMARK SMILES CC(=O)OC[C@@H]1O[C@H](O[C@H]2[C@H](COC(C)=O)OC=C[C@H]2OC(C)=O)[C@H](OC(C)=O)[C@H](OC(C)=O)[C@@H]1OC(C)=O
REMARK SMILES IDX 9 1 10 2 11 3 17 4 18 5 20 6 19 7 12 8 13 9 14 10 16 11
REMARK SMILES IDX 15 12 21 13 22 14 24 15 23 16 8 17 7 18 25 19 6 20 30 21
REMARK SMILES IDX 35 22 26 23 27 24 29 25 28 26 5 27 4 28 2 29 3 30 1 31 31 32
REMARK SMILES IDX 32 33 34 34 33 35 36 36 37 37 39 38 38 39
REMARK H PARENT
ROOT
ATOM      1  O   UNL     1     -26.784   0.792  10.279  1.00  0.00    -0.337 OA
ENDROOT
BRANCH   1   2
ATOM      2  C   UNL     1     -25.546   0.329  10.847  1.00  0.00    +0.211 C 
ATOM      3  C   UNL     1     -24.803  -0.523   9.800  1.00  0.00    +0.243 C 
ATOM      4  O   UNL     1     -23.556  -1.044  10.307  1.00  0.00    -0.492 OA
ATOM      5  C   UNL     1     -22.798  -0.146  11.004  1.00  0.00    +0.187 C 
ATOM      6  C   UNL     1     -24.630   1.509  11.258  1.00  0.00    +0.235 C 
ATOM      7  C   UNL     1     -23.216   1.047  11.441  1.00  0.00    +0.058 C 
BRANCH   3   8
ATOM      8  C   UNL     1     -25.645  -1.716   9.328  1.00  0.00    +0.280 C 
BRANCH   8   9
ATOM      9  O   UNL     1     -25.181  -2.926   9.956  1.00  0.00    -0.462 OA
BRANCH   9  10
ATOM     10  C   UNL     1     -26.040  -3.446  10.874  1.00  0.00    +0.302 C 
ATOM     11  O   UNL     1     -26.922  -2.827  11.451  1.00  0.00    -0.253 OA
ATOM     12  C   UNL     1     -25.744  -4.898  11.087  1.00  0.00    +0.139 C 
ENDBRANCH   9  10
ENDBRANCH   8   9
ENDBRANCH   3   8
BRANCH   6  13
ATOM     13  O   UNL     1     -24.621   2.492  10.205  1.00  0.00    -0.455 OA
BRANCH  13  14
ATOM     14  C   UNL     1     -24.889   3.773  10.568  1.00  0.00    +0.303 C 
ATOM     15  O   UNL     1     -24.609   4.780   9.933  1.00  0.00    -0.253 OA
ATOM     16  C   UNL     1     -25.607   3.783  11.884  1.00  0.00    +0.139 C 
ENDBRANCH  13  14
ENDBRANCH   6  13
ENDBRANCH   1   2
BRANCH   1  17
ATOM     17  C   UNL     1     -27.945   0.209  10.880  1.00  0.00    +0.296 C 
ATOM     18  O   UNL     1     -27.885   0.304  12.295  1.00  0.00    -0.338 OA
ATOM     19  C   UNL     1     -29.191   0.952  10.356  1.00  0.00    +0.277 C 
ATOM     20  C   UNL     1     -29.008  -0.253  12.994  1.00  0.00    +0.204 C 
ATOM     21  C   UNL     1     -30.482   0.340  10.949  1.00  0.00    +0.266 C 
ATOM     22  C   UNL     1     -30.189  -0.661  12.086  1.00  0.00    +0.253 C 
BRANCH  19  23
ATOM     23  O   UNL     1     -29.050   2.359  10.686  1.00  0.00    -0.453 OA
BRANCH  23  24
ATOM     24  C   UNL     1     -29.290   3.230   9.672  1.00  0.00    +0.303 C 
ATOM     25  O   UNL     1     -30.395   3.572   9.277  1.00  0.00    -0.253 OA
ATOM     26  C   UNL     1     -27.999   3.697   9.076  1.00  0.00    +0.139 C 
ENDBRANCH  23  24
ENDBRANCH  19  23
BRANCH  20  27
ATOM     27  C   UNL     1     -29.377   0.681  14.156  1.00  0.00    +0.269 C 
BRANCH  27  28
ATOM     28  O   UNL     1     -29.882  -0.069  15.269  1.00  0.00    -0.463 OA
BRANCH  28  29
ATOM     29  C   UNL     1     -28.930  -0.616  16.070  1.00  0.00    +0.302 C 
ATOM     30  O   UNL     1     -27.754  -0.285  16.109  1.00  0.00    -0.253 OA
ATOM     31  C   UNL     1     -29.531  -1.691  16.920  1.00  0.00    +0.139 C 
ENDBRANCH  28  29
ENDBRANCH  27  28
ENDBRANCH  20  27
BRANCH  21  32
ATOM     32  O   UNL     1     -31.408   1.367  11.364  1.00  0.00    -0.454 OA
BRANCH  32  33
ATOM     33  C   UNL     1     -32.624   1.367  10.750  1.00  0.00    +0.303 C 
ATOM     34  O   UNL     1     -32.832   1.131   9.569  1.00  0.00    -0.253 OA
ATOM     35  C   UNL     1     -33.697   1.682  11.746  1.00  0.00    +0.139 C 
ENDBRANCH  32  33
ENDBRANCH  21  32
BRANCH  22  36
ATOM     36  O   UNL     1     -31.389  -0.951  12.828  1.00  0.00    -0.455 OA
BRANCH  36  37
ATOM     37  C   UNL     1     -31.670  -2.267  13.027  1.00  0.00    +0.303 C 
ATOM     38  O   UNL     1     -31.412  -2.888  14.047  1.00  0.00    -0.253 OA
ATOM     39  C   UNL     1     -32.353  -2.838  11.824  1.00  0.00    +0.139 C 
ENDBRANCH  36  37
ENDBRANCH  22  36
ENDBRANCH   1  17
TORSDOF 16
ENDMDL
MODEL 2
REMARK VINA RESULT:    -7.351      1.589      2.406
REMARK INTER + INTRA:         -16.810
REMARK INTER:                 -14.946
REMARK INTRA:                  -1.864
REMARK UNBOUND:                -2.583
REMARK SMILES CC(=O)OC[C@@H]1O[C@H](O[C@H]2[C@H](COC(C)=O)OC=C[C@H]2OC(C)=O)[C@H](OC(C)=O)[C@H](OC(C)=O)[C@@H]1OC(C)=O
REMARK SMILES IDX 9 1 10 2 11 3 17 4 18 5 20 6 19 7 12 8 13 9 14 10 16 11
REMARK SMILES IDX 15 12 21 13 22 14 24 15 23 16 8 17 7 18 25 19 6 20 30 21
REMARK SMILES IDX 35 22 26 23 27 24 29 25 28 26 5 27 4 28 2 29 3 30 1 31 31 32
REMARK SMILES IDX 32 33 34 34 33 35 36 36 37 37 39 38 38 39
REMARK H PARENT
ROOT
ATOM      1  O   UNL     1     -27.674   2.061  10.279  1.00  0.00    -0.337 OA
ENDROOT
BRANCH   1   2
ATOM      2  C   UNL     1     -26.424   2.541  10.804  1.00  0.00    +0.211 C 
ATOM      3  C   UNL     1     -25.290   1.622  10.311  1.00  0.00    +0.243 C 
ATOM      4  O   UNL     1     -24.000   2.029  10.819  1.00  0.00    -0.492 OA
ATOM      5  C   UNL     1     -23.758   3.372  10.764  1.00  0.00    +0.187 C 
ATOM      6  C   UNL     1     -26.124   3.986  10.334  1.00  0.00    +0.235 C 
ATOM      7  C   UNL     1     -24.673   4.316  10.518  1.00  0.00    +0.058 C 
BRANCH   3   8
ATOM      8  C   UNL     1     -25.511   0.162  10.728  1.00  0.00    +0.280 C 
BRANCH   8   9
ATOM      9  O   UNL     1     -24.267  -0.561  10.673  1.00  0.00    -0.462 OA
BRANCH   9  10
ATOM     10  C   UNL     1     -24.306  -1.686   9.908  1.00  0.00    +0.302 C 
ATOM     11  O   UNL     1     -23.343  -2.383   9.624  1.00  0.00    -0.253 OA
ATOM     12  C   UNL     1     -25.707  -1.947   9.452  1.00  0.00    +0.139 C 
ENDBRANCH   9  10
ENDBRANCH   8   9
ENDBRANCH   3   8
BRANCH   6  13
ATOM     13  O   UNL     1     -26.407   4.095   8.925  1.00  0.00    -0.455 OA
BRANCH  13  14
ATOM     14  C   UNL     1     -26.699   5.337   8.459  1.00  0.00    +0.303 C 
ATOM     15  O   UNL     1     -27.607   6.060   8.843  1.00  0.00    -0.253 OA
ATOM     16  C   UNL     1     -25.716   5.717   7.392  1.00  0.00    +0.139 C 
ENDBRANCH  13  14
ENDBRANCH   6  13
ENDBRANCH   1   2
BRANCH   1  17
ATOM     17  C   UNL     1     -28.271   1.028  11.069  1.00  0.00    +0.296 C 
ATOM     18  O   UNL     1     -28.217   1.352  12.451  1.00  0.00    -0.338 OA
ATOM     19  C   UNL     1     -29.740   0.861  10.627  1.00  0.00    +0.277 C 
ATOM     20  C   UNL     1     -28.793   0.376  13.332  1.00  0.00    +0.204 C 
ATOM     21  C   UNL     1     -30.426  -0.270  11.429  1.00  0.00    +0.266 C 
ATOM     22  C   UNL     1     -29.569  -0.753  12.617  1.00  0.00    +0.253 C 
BRANCH  19  23
ATOM     23  O   UNL     1     -30.410   2.138  10.795  1.00  0.00    -0.453 OA
BRANCH  23  24
ATOM     24  C   UNL     1     -31.038   2.624   9.693  1.00  0.00    +0.303 C 
ATOM     25  O   UNL     1     -31.996   2.107   9.136  1.00  0.00    -0.253 OA
ATOM     26  C   UNL     1     -30.370   3.880   9.230  1.00  0.00    +0.139 C 
ENDBRANCH  23  24
ENDBRANCH  19  23
BRANCH  20  27
ATOM     27  C   UNL     1     -29.579   1.108  14.430  1.00  0.00    +0.269 C 
BRANCH  27  28
ATOM     28  O   UNL     1     -28.855   1.094  15.667  1.00  0.00    -0.463 OA
BRANCH  28  29
ATOM     29  C   UNL     1     -28.381  -0.125  16.039  1.00  0.00    +0.302 C 
ATOM     30  O   UNL     1     -27.227  -0.511  15.913  1.00  0.00    -0.253 OA
ATOM     31  C   UNL     1     -29.480  -0.940  16.645  1.00  0.00    +0.139 C 
ENDBRANCH  28  29
ENDBRANCH  27  28
ENDBRANCH  20  27
BRANCH  21  32
ATOM     32  O   UNL     1     -31.754   0.115  11.846  1.00  0.00    -0.454 OA
BRANCH  32  33
ATOM     33  C   UNL     1     -32.789  -0.439  11.155  1.00  0.00    +0.303 C 
ATOM     34  O   UNL     1     -33.766   0.157  10.725  1.00  0.00    -0.253 OA
ATOM     35  C   UNL     1     -32.550  -1.905  10.968  1.00  0.00    +0.139 C 
ENDBRANCH  32  33
ENDBRANCH  21  32
BRANCH  22  36
ATOM     36  O   UNL     1     -30.358  -1.547  13.522  1.00  0.00    -0.455 OA
BRANCH  36  37
ATOM     37  C   UNL     1     -30.068  -2.875  13.566  1.00  0.00    +0.303 C 
ATOM     38  O   UNL     1     -28.973  -3.358  13.324  1.00  0.00    -0.253 OA
ATOM     39  C   UNL     1     -31.280  -3.656  13.970  1.00  0.00    +0.139 C 
ENDBRANCH  36  37
ENDBRANCH  22  36
ENDBRANCH   1  17
TORSDOF 16
ENDMDL
MODEL 3
REMARK VINA RESULT:    -7.193      1.840      3.255
REMARK INTER + INTRA:         -16.503
REMARK INTER:                 -14.164
REMARK INTRA:                  -2.339
REMARK UNBOUND:                -2.583
REMARK SMILES CC(=O)OC[C@@H]1O[C@H](O[C@H]2[C@H](COC(C)=O)OC=C[C@H]2OC(C)=O)[C@H](OC(C)=O)[C@H](OC(C)=O)[C@@H]1OC(C)=O
REMARK SMILES IDX 9 1 10 2 11 3 17 4 18 5 20 6 19 7 12 8 13 9 14 10 16 11
REMARK SMILES IDX 15 12 21 13 22 14 24 15 23 16 8 17 7 18 25 19 6 20 30 21
REMARK SMILES IDX 35 22 26 23 27 24 29 25 28 26 5 27 4 28 2 29 3 30 1 31 31 32
REMARK SMILES IDX 32 33 34 34 33 35 36 36 37 37 39 38 38 39
REMARK H PARENT
ROOT
ATOM      1  O   UNL     1     -27.074   0.381  10.180  1.00  0.00    -0.337 OA
ENDROOT
BRANCH   1   2
ATOM      2  C   UNL     1     -26.174   1.301  10.823  1.00  0.00    +0.211 C 
ATOM      3  C   UNL     1     -24.759   1.099  10.249  1.00  0.00    +0.243 C 
ATOM      4  O   UNL     1     -23.791   1.976  10.865  1.00  0.00    -0.492 OA
ATOM      5  C   UNL     1     -24.203   3.270  11.019  1.00  0.00    +0.187 C 
ATOM      6  C   UNL     1     -26.595   2.772  10.585  1.00  0.00    +0.235 C 
ATOM      7  C   UNL     1     -25.459   3.705  10.877  1.00  0.00    +0.058 C 
BRANCH   3   8
ATOM      8  C   UNL     1     -24.262  -0.341  10.436  1.00  0.00    +0.280 C 
BRANCH   8   9
ATOM      9  O   UNL     1     -22.891  -0.450  10.011  1.00  0.00    -0.462 OA
BRANCH   9  10
ATOM     10  C   UNL     1     -22.292  -1.625  10.343  1.00  0.00    +0.302 C 
ATOM     11  O   UNL     1     -21.343  -1.748  11.103  1.00  0.00    -0.253 OA
ATOM     12  C   UNL     1     -22.961  -2.760   9.631  1.00  0.00    +0.139 C 
ENDBRANCH   9  10
ENDBRANCH   8   9
ENDBRANCH   3   8
BRANCH   6  13
ATOM     13  O   UNL     1     -26.941   2.948   9.197  1.00  0.00    -0.455 OA
BRANCH  13  14
ATOM     14  C   UNL     1     -27.624   4.078   8.880  1.00  0.00    +0.303 C 
ATOM     15  O   UNL     1     -28.782   4.332   9.176  1.00  0.00    -0.253 OA
ATOM     16  C   UNL     1     -26.732   5.004   8.108  1.00  0.00    +0.139 C 
ENDBRANCH  13  14
ENDBRANCH   6  13
ENDBRANCH   1   2
BRANCH   1  17
ATOM     17  C   UNL     1     -27.484  -0.704  11.020  1.00  0.00    +0.296 C 
ATOM     18  O   UNL     1     -27.188  -0.430  12.381  1.00  0.00    -0.338 OA
ATOM     19  C   UNL     1     -29.003  -0.910  10.844  1.00  0.00    +0.277 C 
ATOM     20  C   UNL     1     -27.564  -1.459  13.309  1.00  0.00    +0.204 C 
ATOM     21  C   UNL     1     -29.497  -2.095  11.707  1.00  0.00    +0.266 C 
ATOM     22  C   UNL     1     -28.422  -2.589  12.698  1.00  0.00    +0.253 C 
BRANCH  19  23
ATOM     23  O   UNL     1     -29.670   0.334  11.187  1.00  0.00    -0.453 OA
BRANCH  23  24
ATOM     24  C   UNL     1     -30.608   0.763  10.304  1.00  0.00    +0.303 C 
ATOM     25  O   UNL     1     -31.026   0.128   9.347  1.00  0.00    -0.253 OA
ATOM     26  C   UNL     1     -31.045   2.152  10.650  1.00  0.00    +0.139 C 
ENDBRANCH  23  24
ENDBRANCH  19  23
BRANCH  20  27
ATOM     27  C   UNL     1     -28.157  -0.801  14.562  1.00  0.00    +0.269 C 
BRANCH  27  28
ATOM     28  O   UNL     1     -28.384   0.598  14.342  1.00  0.00    -0.463 OA
BRANCH  28  29
ATOM     29  C   UNL     1     -29.372   1.144  15.098  1.00  0.00    +0.302 C 
ATOM     30  O   UNL     1     -29.218   1.719  16.166  1.00  0.00    -0.253 OA
ATOM     31  C   UNL     1     -30.696   0.952  14.428  1.00  0.00    +0.139 C 
ENDBRANCH  28  29
ENDBRANCH  27  28
ENDBRANCH  20  27
BRANCH  21  32
ATOM     32  O   UNL     1     -30.737  -1.777  12.375  1.00  0.00    -0.454 OA
BRANCH  32  33
ATOM     33  C   UNL     1     -31.857  -2.381  11.888  1.00  0.00    +0.303 C 
ATOM     34  O   UNL     1     -32.581  -1.945  11.005  1.00  0.00    -0.253 OA
ATOM     35  C   UNL     1     -32.072  -3.690  12.582  1.00  0.00    +0.139 C 
ENDBRANCH  32  33
ENDBRANCH  21  32
BRANCH  22  36
ATOM     36  O   UNL     1     -29.008  -3.447  13.695  1.00  0.00    -0.455 OA
BRANCH  36  37
ATOM     37  C   UNL     1     -28.776  -4.779  13.554  1.00  0.00    +0.303 C 
ATOM     38  O   UNL     1     -29.441  -5.662  14.075  1.00  0.00    -0.253 OA
ATOM     39  C   UNL     1     -27.599  -5.007  12.657  1.00  0.00    +0.139 C 
ENDBRANCH  36  37
ENDBRANCH  22  36
ENDBRANCH   1  17
TORSDOF 16
ENDMDL
MODEL 4
REMARK VINA RESULT:    -7.058      1.751      4.637
REMARK INTER + INTRA:         -16.242
REMARK INTER:                 -13.896
REMARK INTRA:                  -2.346
REMARK UNBOUND:                -2.583
REMARK SMILES CC(=O)OC[C@@H]1O[C@H](O[C@H]2[C@H](COC(C)=O)OC=C[C@H]2OC(C)=O)[C@H](OC(C)=O)[C@H](OC(C)=O)[C@@H]1OC(C)=O
REMARK SMILES IDX 9 1 10 2 11 3 17 4 18 5 20 6 19 7 12 8 13 9 14 10 16 11
REMARK SMILES IDX 15 12 21 13 22 14 24 15 23 16 8 17 7 18 25 19 6 20 30 21
REMARK SMILES IDX 35 22 26 23 27 24 29 25 28 26 5 27 4 28 2 29 3 30 1 31 31 32
REMARK SMILES IDX 32 33 34 34 33 35 36 36 37 37 39 38 38 39
REMARK H PARENT
ROOT
ATOM      1  O   UNL     1     -25.865   0.556  10.696  1.00  0.00    -0.337 OA
ENDROOT
BRANCH   1   2
ATOM      2  C   UNL     1     -24.756   1.337  11.173  1.00  0.00    +0.211 C 
ATOM      3  C   UNL     1     -23.472   0.870  10.459  1.00  0.00    +0.243 C 
ATOM      4  O   UNL     1     -22.306   1.596  10.905  1.00  0.00    -0.492 OA
ATOM      5  C   UNL     1     -22.478   2.947  11.018  1.00  0.00    +0.187 C 
ATOM      6  C   UNL     1     -24.954   2.846  10.886  1.00  0.00    +0.235 C 
ATOM      7  C   UNL     1     -23.653   3.584  10.987  1.00  0.00    +0.058 C 
BRANCH   3   8
ATOM      8  C   UNL     1     -23.201  -0.624  10.686  1.00  0.00    +0.280 C 
BRANCH   8   9
ATOM      9  O   UNL     1     -21.906  -0.804  11.290  1.00  0.00    -0.462 OA
BRANCH   9  10
ATOM     10  C   UNL     1     -21.373  -2.043  11.115  1.00  0.00    +0.302 C 
ATOM     11  O   UNL     1     -20.578  -2.586  11.868  1.00  0.00    -0.253 OA
ATOM     12  C   UNL     1     -21.897  -2.652   9.852  1.00  0.00    +0.139 C 
ENDBRANCH   9  10
ENDBRANCH   8   9
ENDBRANCH   3   8
BRANCH   6  13
ATOM     13  O   UNL     1     -25.432   3.013   9.536  1.00  0.00    -0.455 OA
BRANCH  13  14
ATOM     14  C   UNL     1     -26.424   3.921   9.352  1.00  0.00    +0.303 C 
ATOM     15  O   UNL     1     -27.547   3.875   9.834  1.00  0.00    -0.253 OA
ATOM     16  C   UNL     1     -25.937   5.027   8.465  1.00  0.00    +0.139 C 
ENDBRANCH  13  14
ENDBRANCH   6  13
ENDBRANCH   1   2
BRANCH   1  17
ATOM     17  C   UNL     1     -26.866   0.314  11.690  1.00  0.00    +0.296 C 
ATOM     18  O   UNL     1     -28.107   0.890  11.310  1.00  0.00    -0.338 OA
ATOM     19  C   UNL     1     -27.027  -1.212  11.861  1.00  0.00    +0.277 C 
ATOM     20  C   UNL     1     -29.181   0.702  12.243  1.00  0.00    +0.204 C 
ATOM     21  C   UNL     1     -28.077  -1.532  12.950  1.00  0.00    +0.266 C 
ATOM     22  C   UNL     1     -28.866  -0.281  13.393  1.00  0.00    +0.253 C 
BRANCH  19  23
ATOM     23  O   UNL     1     -27.385  -1.774  10.571  1.00  0.00    -0.453 OA
BRANCH  23  24
ATOM     24  C   UNL     1     -26.347  -2.185   9.798  1.00  0.00    +0.303 C 
ATOM     25  O   UNL     1     -26.002  -1.675   8.742  1.00  0.00    -0.253 OA
ATOM     26  C   UNL     1     -25.692  -3.385  10.408  1.00  0.00    +0.139 C 
ENDBRANCH  23  24
ENDBRANCH  19  23
BRANCH  20  27
ATOM     27  C   UNL     1     -30.465   0.391  11.460  1.00  0.00    +0.269 C 
BRANCH  27  28
ATOM     28  O   UNL     1     -30.868   1.522  10.677  1.00  0.00    -0.463 OA
BRANCH  28  29
ATOM     29  C   UNL     1     -32.200   1.594  10.416  1.00  0.00    +0.302 C 
ATOM     30  O   UNL     1     -32.705   1.682   9.306  1.00  0.00    -0.253 OA
ATOM     31  C   UNL     1     -32.977   1.540  11.693  1.00  0.00    +0.139 C 
ENDBRANCH  28  29
ENDBRANCH  27  28
ENDBRANCH  20  27
BRANCH  21  32
ATOM     32  O   UNL     1     -28.954  -2.601  12.536  1.00  0.00    -0.454 OA
BRANCH  32  33
ATOM     33  C   UNL     1     -28.947  -3.722  13.309  1.00  0.00    +0.303 C 
ATOM     34  O   UNL     1     -29.693  -3.950  14.251  1.00  0.00    -0.253 OA
ATOM     35  C   UNL     1     -27.893  -4.668  12.825  1.00  0.00    +0.139 C 
ENDBRANCH  32  33
ENDBRANCH  21  32
BRANCH  22  36
ATOM     36  O   UNL     1     -30.036  -0.659  14.141  1.00  0.00    -0.455 OA
BRANCH  36  37
ATOM     37  C   UNL     1     -29.956  -0.525  15.492  1.00  0.00    +0.303 C 
ATOM     38  O   UNL     1     -30.159  -1.422  16.296  1.00  0.00    -0.253 OA
ATOM     39  C   UNL     1     -29.567   0.876  15.850  1.00  0.00    +0.139 C 
ENDBRANCH  36  37
ENDBRANCH  22  36
ENDBRANCH   1  17
TORSDOF 16
ENDMDL
MODEL 5
REMARK VINA RESULT:    -6.986      1.878      7.023
REMARK INTER + INTRA:         -16.104
REMARK INTER:                 -14.811
REMARK INTRA:                  -1.292
REMARK UNBOUND:                -2.583
REMARK SMILES CC(=O)OC[C@@H]1O[C@H](O[C@H]2[C@H](COC(C)=O)OC=C[C@H]2OC(C)=O)[C@H](OC(C)=O)[C@H](OC(C)=O)[C@@H]1OC(C)=O
REMARK SMILES IDX 9 1 10 2 11 3 17 4 18 5 20 6 19 7 12 8 13 9 14 10 16 11
REMARK SMILES IDX 15 12 21 13 22 14 24 15 23 16 8 17 7 18 25 19 6 20 30 21
REMARK SMILES IDX 35 22 26 23 27 24 29 25 28 26 5 27 4 28 2 29 3 30 1 31 31 32
REMARK SMILES IDX 32 33 34 34 33 35 36 36 37 37 39 38 38 39
REMARK H PARENT
ROOT
ATOM      1  O   UNL     1     -30.560   1.850  10.287  1.00  0.00    -0.337 OA
ENDROOT
BRANCH   1   2
ATOM      2  C   UNL     1     -30.957   3.233  10.263  1.00  0.00    +0.211 C 
ATOM      3  C   UNL     1     -30.259   3.932   9.081  1.00  0.00    +0.243 C 
ATOM      4  O   UNL     1     -30.593   5.335   9.004  1.00  0.00    -0.492 OA
ATOM      5  C   UNL     1     -31.917   5.622   9.181  1.00  0.00    +0.187 C 
ATOM      6  C   UNL     1     -32.489   3.384  10.087  1.00  0.00    +0.235 C 
ATOM      7  C   UNL     1     -32.840   4.771   9.642  1.00  0.00    +0.058 C 
BRANCH   3   8
ATOM      8  C   UNL     1     -28.731   3.825   9.171  1.00  0.00    +0.280 C 
BRANCH   8   9
ATOM      9  O   UNL     1     -28.126   5.084   8.822  1.00  0.00    -0.462 OA
BRANCH   9  10
ATOM     10  C   UNL     1     -26.825   4.994   8.436  1.00  0.00    +0.302 C 
ATOM     11  O   UNL     1     -26.090   4.039   8.640  1.00  0.00    -0.253 OA
ATOM     12  C   UNL     1     -26.412   6.245   7.726  1.00  0.00    +0.139 C 
ENDBRANCH   9  10
ENDBRANCH   8   9
ENDBRANCH   3   8
BRANCH   6  13
ATOM     13  O   UNL     1     -32.939   2.482   9.057  1.00  0.00    -0.455 OA
BRANCH  13  14
ATOM     14  C   UNL     1     -34.148   1.894   9.252  1.00  0.00    +0.303 C 
ATOM     15  O   UNL     1     -35.109   1.946   8.498  1.00  0.00    -0.253 OA
ATOM     16  C   UNL     1     -34.136   1.137  10.547  1.00  0.00    +0.139 C 
ENDBRANCH  13  14
ENDBRANCH   6  13
ENDBRANCH   1   2
BRANCH   1  17
ATOM     17  C   UNL     1     -29.159   1.659  10.513  1.00  0.00    +0.296 C 
ATOM     18  O   UNL     1     -28.853   1.746  11.897  1.00  0.00    -0.338 OA
ATOM     19  C   UNL     1     -28.763   0.269   9.974  1.00  0.00    +0.277 C 
ATOM     20  C   UNL     1     -27.468   1.566  12.230  1.00  0.00    +0.204 C 
ATOM     21  C   UNL     1     -27.248   0.022  10.163  1.00  0.00    +0.266 C 
ATOM     22  C   UNL     1     -26.584   1.092  11.056  1.00  0.00    +0.253 C 
BRANCH  19  23
ATOM     23  O   UNL     1     -29.570  -0.726  10.656  1.00  0.00    -0.453 OA
BRANCH  23  24
ATOM     24  C   UNL     1     -30.740  -1.054  10.048  1.00  0.00    +0.303 C 
ATOM     25  O   UNL     1     -31.005  -0.868   8.870  1.00  0.00    -0.253 OA
ATOM     26  C   UNL     1     -31.685  -1.656  11.040  1.00  0.00    +0.139 C 
ENDBRANCH  23  24
ENDBRANCH  19  23
BRANCH  20  27
ATOM     27  C   UNL     1     -27.374   0.708  13.500  1.00  0.00    +0.269 C 
BRANCH  27  28
ATOM     28  O   UNL     1     -28.619   0.046  13.758  1.00  0.00    -0.463 OA
BRANCH  28  29
ATOM     29  C   UNL     1     -29.138   0.264  14.995  1.00  0.00    +0.302 C 
ATOM     30  O   UNL     1     -28.987   1.276  15.664  1.00  0.00    -0.253 OA
ATOM     31  C   UNL     1     -29.943  -0.920  15.430  1.00  0.00    +0.139 C 
ENDBRANCH  28  29
ENDBRANCH  27  28
ENDBRANCH  20  27
BRANCH  21  32
ATOM     32  O   UNL     1     -26.989  -1.315  10.644  1.00  0.00    -0.454 OA
BRANCH  32  33
ATOM     33  C   UNL     1     -26.186  -2.092   9.866  1.00  0.00    +0.303 C 
ATOM     34  O   UNL     1     -25.777  -1.809   8.749  1.00  0.00    -0.253 OA
ATOM     35  C   UNL     1     -25.847  -3.359  10.588  1.00  0.00    +0.139 C 
ENDBRANCH  32  33
ENDBRANCH  21  32
BRANCH  22  36
ATOM     36  O   UNL     1     -25.278   0.658  11.480  1.00  0.00    -0.455 OA
BRANCH  36  37
ATOM     37  C   UNL     1     -24.253   0.905  10.620  1.00  0.00    +0.303 C 
ATOM     38  O   UNL     1     -24.340   1.586   9.610  1.00  0.00    -0.253 OA
ATOM     39  C   UNL     1     -23.003   0.236  11.100  1.00  0.00    +0.139 C 
ENDBRANCH  36  37
ENDBRANCH  22  36
ENDBRANCH   1  17
TORSDOF 16
ENDMDL
MODEL 6
REMARK VINA RESULT:    -6.930      3.007      6.387
REMARK INTER + INTRA:         -15.995
REMARK INTER:                 -13.053
REMARK INTRA:                  -2.941
REMARK UNBOUND:                -2.583
REMARK SMILES CC(=O)OC[C@@H]1O[C@H](O[C@H]2[C@H](COC(C)=O)OC=C[C@H]2OC(C)=O)[C@H](OC(C)=O)[C@H](OC(C)=O)[C@@H]1OC(C)=O
REMARK SMILES IDX 9 1 10 2 11 3 17 4 18 5 20 6 19 7 12 8 13 9 14 10 16 11
REMARK SMILES IDX 15 12 21 13 22 14 24 15 23 16 8 17 7 18 25 19 6 20 30 21
REMARK SMILES IDX 35 22 26 23 27 24 29 25 28 26 5 27 4 28 2 29 3 30 1 31 31 32
REMARK SMILES IDX 32 33 34 34 33 35 36 36 37 37 39 38 38 39
REMARK H PARENT
ROOT
ATOM      1  O   UNL     1     -29.590   2.022  10.102  1.00  0.00    -0.337 OA
ENDROOT
BRANCH   1   2
ATOM      2  C   UNL     1     -28.633   2.113  11.173  1.00  0.00    +0.211 C 
ATOM      3  C   UNL     1     -27.889   0.769  11.291  1.00  0.00    +0.243 C 
ATOM      4  O   UNL     1     -26.923   0.775  12.365  1.00  0.00    -0.492 OA
ATOM      5  C   UNL     1     -26.154   1.902  12.441  1.00  0.00    +0.187 C 
ATOM      6  C   UNL     1     -27.591   3.229  10.915  1.00  0.00    +0.235 C 
ATOM      7  C   UNL     1     -26.385   3.043  11.785  1.00  0.00    +0.058 C 
BRANCH   3   8
ATOM      8  C   UNL     1     -28.850  -0.401  11.541  1.00  0.00    +0.280 C 
BRANCH   8   9
ATOM      9  O   UNL     1     -28.791  -0.802  12.923  1.00  0.00    -0.462 OA
BRANCH   9  10
ATOM     10  C   UNL     1     -29.975  -0.706  13.586  1.00  0.00    +0.302 C 
ATOM     11  O   UNL     1     -30.831  -1.577  13.639  1.00  0.00    -0.253 OA
ATOM     12  C   UNL     1     -30.089   0.635  14.242  1.00  0.00    +0.139 C 
ENDBRANCH   9  10
ENDBRANCH   8   9
ENDBRANCH   3   8
BRANCH   6  13
ATOM     13  O   UNL     1     -27.143   3.154   9.547  1.00  0.00    -0.455 OA
BRANCH  13  14
ATOM     14  C   UNL     1     -27.071   4.327   8.867  1.00  0.00    +0.303 C 
ATOM     15  O   UNL     1     -28.014   5.026   8.526  1.00  0.00    -0.253 OA
ATOM     16  C   UNL     1     -25.635   4.666   8.599  1.00  0.00    +0.139 C 
ENDBRANCH  13  14
ENDBRANCH   6  13
ENDBRANCH   1   2
BRANCH   1  17
ATOM     17  C   UNL     1     -30.750   2.837  10.298  1.00  0.00    +0.296 C 
ATOM     18  O   UNL     1     -30.986   3.663   9.167  1.00  0.00    -0.338 OA
ATOM     19  C   UNL     1     -31.962   1.913  10.535  1.00  0.00    +0.277 C 
ATOM     20  C   UNL     1     -32.132   4.521   9.264  1.00  0.00    +0.204 C 
ATOM     21  C   UNL     1     -33.242   2.744  10.786  1.00  0.00    +0.266 C 
ATOM     22  C   UNL     1     -33.039   4.244  10.484  1.00  0.00    +0.253 C 
BRANCH  19  23
ATOM     23  O   UNL     1     -32.094   1.037   9.384  1.00  0.00    -0.453 OA
BRANCH  23  24
ATOM     24  C   UNL     1     -31.758  -0.263   9.590  1.00  0.00    +0.303 C 
ATOM     25  O   UNL     1     -30.970  -0.908   8.915  1.00  0.00    -0.253 OA
ATOM     26  C   UNL     1     -32.519  -0.813  10.755  1.00  0.00    +0.139 C 
ENDBRANCH  23  24
ENDBRANCH  19  23
BRANCH  20  27
ATOM     27  C   UNL     1     -32.856   4.532   7.909  1.00  0.00    +0.269 C 
BRANCH  27  28
ATOM     28  O   UNL     1     -32.874   5.853   7.354  1.00  0.00    -0.463 OA
BRANCH  28  29
ATOM     29  C   UNL     1     -34.079   6.254   6.868  1.00  0.00    +0.302 C 
ATOM     30  O   UNL     1     -35.029   6.631   7.539  1.00  0.00    -0.253 OA
ATOM     31  C   UNL     1     -34.080   6.177   5.374  1.00  0.00    +0.139 C 
ENDBRANCH  28  29
ENDBRANCH  27  28
ENDBRANCH  20  27
BRANCH  21  32
ATOM     32  O   UNL     1     -34.371   2.200  10.068  1.00  0.00    -0.454 OA
BRANCH  32  33
ATOM     33  C   UNL     1     -35.422   1.779  10.825  1.00  0.00    +0.303 C 
ATOM     34  O   UNL     1     -35.349   1.107  11.844  1.00  0.00    -0.253 OA
ATOM     35  C   UNL     1     -36.705   2.279  10.239  1.00  0.00    +0.139 C 
ENDBRANCH  32  33
ENDBRANCH  21  32
BRANCH  22  36
ATOM     36  O   UNL     1     -34.307   4.921  10.403  1.00  0.00    -0.455 OA
BRANCH  36  37
ATOM     37  C   UNL     1     -34.803   5.411  11.571  1.00  0.00    +0.303 C 
ATOM     38  O   UNL     1     -34.154   5.562  12.595  1.00  0.00    -0.253 OA
ATOM     39  C   UNL     1     -36.252   5.751  11.415  1.00  0.00    +0.139 C 
ENDBRANCH  36  37
ENDBRANCH  22  36
ENDBRANCH   1  17
TORSDOF 16
ENDMDL
MODEL 7
REMARK VINA RESULT:    -6.907      2.123      7.747
REMARK INTER + INTRA:         -15.950
REMARK INTER:                 -14.002
REMARK INTRA:                  -1.948
REMARK UNBOUND:                -2.583
REMARK SMILES CC(=O)OC[C@@H]1O[C@H](O[C@H]2[C@H](COC(C)=O)OC=C[C@H]2OC(C)=O)[C@H](OC(C)=O)[C@H](OC(C)=O)[C@@H]1OC(C)=O
REMARK SMILES IDX 9 1 10 2 11 3 17 4 18 5 20 6 19 7 12 8 13 9 14 10 16 11
REMARK SMILES IDX 15 12 21 13 22 14 24 15 23 16 8 17 7 18 25 19 6 20 30 21
REMARK SMILES IDX 35 22 26 23 27 24 29 25 28 26 5 27 4 28 2 29 3 30 1 31 31 32
REMARK SMILES IDX 32 33 34 34 33 35 36 36 37 37 39 38 38 39
REMARK H PARENT
ROOT
ATOM      1  O   UNL     1     -31.477   1.336   9.761  1.00  0.00    -0.337 OA
ENDROOT
BRANCH   1   2
ATOM      2  C   UNL     1     -32.082   2.334  10.602  1.00  0.00    +0.211 C 
ATOM      3  C   UNL     1     -32.523   3.524   9.727  1.00  0.00    +0.243 C 
ATOM      4  O   UNL     1     -33.121   4.581  10.508  1.00  0.00    -0.492 OA
ATOM      5  C   UNL     1     -34.014   4.162  11.454  1.00  0.00    +0.187 C 
ATOM      6  C   UNL     1     -33.327   1.781  11.340  1.00  0.00    +0.235 C 
ATOM      7  C   UNL     1     -34.180   2.899  11.859  1.00  0.00    +0.058 C 
BRANCH   3   8
ATOM      8  C   UNL     1     -31.347   4.132   8.951  1.00  0.00    +0.280 C 
BRANCH   8   9
ATOM      9  O   UNL     1     -31.112   5.483   9.390  1.00  0.00    -0.462 OA
BRANCH   9  10
ATOM     10  C   UNL     1     -31.001   6.389   8.381  1.00  0.00    +0.302 C 
ATOM     11  O   UNL     1     -29.990   7.016   8.099  1.00  0.00    -0.253 OA
ATOM     12  C   UNL     1     -32.308   6.519   7.663  1.00  0.00    +0.139 C 
ENDBRANCH   9  10
ENDBRANCH   8   9
ENDBRANCH   3   8
BRANCH   6  13
ATOM     13  O   UNL     1     -34.133   1.029  10.412  1.00  0.00    -0.455 OA
BRANCH  13  14
ATOM     14  C   UNL     1     -35.436   1.395  10.304  1.00  0.00    +0.303 C 
ATOM     15  O   UNL     1     -36.300   1.260  11.158  1.00  0.00    -0.253 OA
ATOM     16  C   UNL     1     -35.673   2.022   8.962  1.00  0.00    +0.139 C 
ENDBRANCH  13  14
ENDBRANCH   6  13
ENDBRANCH   1   2
BRANCH   1  17
ATOM     17  C   UNL     1     -30.065   1.199   9.958  1.00  0.00    +0.296 C 
ATOM     18  O   UNL     1     -29.601   2.105  10.947  1.00  0.00    -0.338 OA
ATOM     19  C   UNL     1     -29.772  -0.252  10.395  1.00  0.00    +0.277 C 
ATOM     20  C   UNL     1     -28.193   2.045  11.220  1.00  0.00    +0.204 C 
ATOM     21  C   UNL     1     -28.253  -0.466  10.590  1.00  0.00    +0.266 C 
ATOM     22  C   UNL     1     -27.462   0.858  10.554  1.00  0.00    +0.253 C 
BRANCH  19  23
ATOM     23  O   UNL     1     -30.524  -0.518  11.608  1.00  0.00    -0.453 OA
BRANCH  23  24
ATOM     24  C   UNL     1     -31.347  -1.598  11.567  1.00  0.00    +0.303 C 
ATOM     25  O   UNL     1     -32.115  -1.871  10.656  1.00  0.00    -0.253 OA
ATOM     26  C   UNL     1     -31.206  -2.403  12.820  1.00  0.00    +0.139 C 
ENDBRANCH  23  24
ENDBRANCH  19  23
BRANCH  20  27
ATOM     27  C   UNL     1     -27.980   2.168  12.736  1.00  0.00    +0.269 C 
BRANCH  27  28
ATOM     28  O   UNL     1     -29.087   1.607  13.452  1.00  0.00    -0.463 OA
BRANCH  28  29
ATOM     29  C   UNL     1     -28.750   0.852  14.530  1.00  0.00    +0.302 C 
ATOM     30  O   UNL     1     -27.663   0.323  14.718  1.00  0.00    -0.253 OA
ATOM     31  C   UNL     1     -29.905   0.762  15.476  1.00  0.00    +0.139 C 
ENDBRANCH  28  29
ENDBRANCH  27  28
ENDBRANCH  20  27
BRANCH  21  32
ATOM     32  O   UNL     1     -27.979  -1.222  11.790  1.00  0.00    -0.454 OA
BRANCH  32  33
ATOM     33  C   UNL     1     -27.239  -2.355  11.634  1.00  0.00    +0.303 C 
ATOM     34  O   UNL     1     -26.355  -2.526  10.808  1.00  0.00    -0.253 OA
ATOM     35  C   UNL     1     -27.650  -3.376  12.649  1.00  0.00    +0.139 C 
ENDBRANCH  32  33
ENDBRANCH  21  32
BRANCH  22  36
ATOM     36  O   UNL     1     -26.129   0.667  11.063  1.00  0.00    -0.455 OA
BRANCH  36  37
ATOM     37  C   UNL     1     -25.116   0.814  10.168  1.00  0.00    +0.303 C 
ATOM     38  O   UNL     1     -25.266   1.008   8.971  1.00  0.00    -0.253 OA
ATOM     39  C   UNL     1     -23.793   0.719  10.863  1.00  0.00    +0.139 C 
ENDBRANCH  36  37
ENDBRANCH  22  36
ENDBRANCH   1  17
TORSDOF 16
ENDMDL
MODEL 8
REMARK VINA RESULT:    -6.896      1.406      6.953
REMARK INTER + INTRA:         -15.930
REMARK INTER:                 -14.272
REMARK INTRA:                  -1.658
REMARK UNBOUND:                -2.583
REMARK SMILES CC(=O)OC[C@@H]1O[C@H](O[C@H]2[C@H](COC(C)=O)OC=C[C@H]2OC(C)=O)[C@H](OC(C)=O)[C@H](OC(C)=O)[C@@H]1OC(C)=O
REMARK SMILES IDX 9 1 10 2 11 3 17 4 18 5 20 6 19 7 12 8 13 9 14 10 16 11
REMARK SMILES IDX 15 12 21 13 22 14 24 15 23 16 8 17 7 18 25 19 6 20 30 21
REMARK SMILES IDX 35 22 26 23 27 24 29 25 28 26 5 27 4 28 2 29 3 30 1 31 31 32
REMARK SMILES IDX 32 33 34 34 33 35 36 36 37 37 39 38 38 39
REMARK H PARENT
ROOT
ATOM      1  O   UNL     1     -29.348   1.439  11.747  1.00  0.00    -0.337 OA
ENDROOT
BRANCH   1   2
ATOM      2  C   UNL     1     -29.904   0.193  11.291  1.00  0.00    +0.211 C 
ATOM      3  C   UNL     1     -30.306  -0.652  12.516  1.00  0.00    +0.243 C 
ATOM      4  O   UNL     1     -30.854  -1.933  12.138  1.00  0.00    -0.492 OA
ATOM      5  C   UNL     1     -31.753  -1.893  11.109  1.00  0.00    +0.187 C 
ATOM      6  C   UNL     1     -31.163   0.415  10.416  1.00  0.00    +0.235 C 
ATOM      7  C   UNL     1     -31.965  -0.846  10.306  1.00  0.00    +0.058 C 
BRANCH   3   8
ATOM      8  C   UNL     1     -29.114  -0.916  13.446  1.00  0.00    +0.280 C 
BRANCH   8   9
ATOM      9  O   UNL     1     -29.536  -0.844  14.821  1.00  0.00    -0.462 OA
BRANCH   9  10
ATOM     10  C   UNL     1     -28.776  -0.027  15.600  1.00  0.00    +0.302 C 
ATOM     11  O   UNL     1     -27.642  -0.270  15.987  1.00  0.00    -0.253 OA
ATOM     12  C   UNL     1     -29.535   1.222  15.926  1.00  0.00    +0.139 C 
ENDBRANCH   9  10
ENDBRANCH   8   9
ENDBRANCH   3   8
BRANCH   6  13
ATOM     13  O   UNL     1     -32.008   1.401  11.042  1.00  0.00    -0.455 OA
BRANCH  13  14
ATOM     14  C   UNL     1     -33.193   1.660  10.432  1.00  0.00    +0.303 C 
ATOM     15  O   UNL     1     -33.375   1.797   9.231  1.00  0.00    -0.253 OA
ATOM     16  C   UNL     1     -34.282   1.740  11.460  1.00  0.00    +0.139 C 
ENDBRANCH  13  14
ENDBRANCH   6  13
ENDBRANCH   1   2
BRANCH   1  17
ATOM     17  C   UNL     1     -27.938   1.554  11.524  1.00  0.00    +0.296 C 
ATOM     18  O   UNL     1     -27.453   0.453  10.770  1.00  0.00    -0.338 OA
ATOM     19  C   UNL     1     -27.669   2.870  10.766  1.00  0.00    +0.277 C 
ATOM     20  C   UNL     1     -26.045   0.475  10.491  1.00  0.00    +0.204 C 
ATOM     21  C   UNL     1     -26.153   3.062  10.527  1.00  0.00    +0.266 C 
ATOM     22  C   UNL     1     -25.339   1.796  10.867  1.00  0.00    +0.253 C 
BRANCH  19  23
ATOM     23  O   UNL     1     -28.420   2.836   9.523  1.00  0.00    -0.453 OA
BRANCH  23  24
ATOM     24  C   UNL     1     -29.073   3.982   9.197  1.00  0.00    +0.303 C 
ATOM     25  O   UNL     1     -28.541   5.036   8.880  1.00  0.00    -0.253 OA
ATOM     26  C   UNL     1     -30.552   3.783   9.309  1.00  0.00    +0.139 C 
ENDBRANCH  23  24
ENDBRANCH  19  23
BRANCH  20  27
ATOM     27  C   UNL     1     -25.822   0.010   9.044  1.00  0.00    +0.269 C 
BRANCH  27  28
ATOM     28  O   UNL     1     -26.117  -1.386   8.910  1.00  0.00    -0.463 OA
BRANCH  28  29
ATOM     29  C   UNL     1     -25.513  -2.190   9.824  1.00  0.00    +0.302 C 
ATOM     30  O   UNL     1     -26.079  -2.816  10.709  1.00  0.00    -0.253 OA
ATOM     31  C   UNL     1     -24.035  -2.214   9.589  1.00  0.00    +0.139 C 
ENDBRANCH  28  29
ENDBRANCH  27  28
ENDBRANCH  20  27
BRANCH  21  32
ATOM     32  O   UNL     1     -25.887   3.527   9.185  1.00  0.00    -0.454 OA
BRANCH  32  33
ATOM     33  C   UNL     1     -25.215   4.706   9.077  1.00  0.00    +0.303 C 
ATOM     34  O   UNL     1     -24.424   5.159   9.893  1.00  0.00    -0.253 OA
ATOM     35  C   UNL     1     -25.565   5.376   7.786  1.00  0.00    +0.139 C 
ENDBRANCH  32  33
ENDBRANCH  21  32
BRANCH  22  36
ATOM     36  O   UNL     1     -24.007   1.890  10.328  1.00  0.00    -0.455 OA
BRANCH  36  37
ATOM     37  C   UNL     1     -23.051   1.153  10.954  1.00  0.00    +0.303 C 
ATOM     38  O   UNL     1     -23.258   0.391  11.887  1.00  0.00    -0.253 OA
ATOM     39  C   UNL     1     -21.714   1.399  10.326  1.00  0.00    +0.139 C 
ENDBRANCH  36  37
ENDBRANCH  22  36
ENDBRANCH   1  17
TORSDOF 16
ENDMDL
MODEL 9
REMARK VINA RESULT:    -6.858      1.589      2.174
REMARK INTER + INTRA:         -15.855
REMARK INTER:                 -13.871
REMARK INTRA:                  -1.984
REMARK UNBOUND:                -2.583
REMARK SMILES CC(=O)OC[C@@H]1O[C@H](O[C@H]2[C@H](COC(C)=O)OC=C[C@H]2OC(C)=O)[C@H](OC(C)=O)[C@H](OC(C)=O)[C@@H]1OC(C)=O
REMARK SMILES IDX 9 1 10 2 11 3 17 4 18 5 20 6 19 7 12 8 13 9 14 10 16 11
REMARK SMILES IDX 15 12 21 13 22 14 24 15 23 16 8 17 7 18 25 19 6 20 30 21
REMARK SMILES IDX 35 22 26 23 27 24 29 25 28 26 5 27 4 28 2 29 3 30 1 31 31 32
REMARK SMILES IDX 32 33 34 34 33 35 36 36 37 37 39 38 38 39
REMARK H PARENT
ROOT
ATOM      1  O   UNL     1     -26.688   0.269  10.774  1.00  0.00    -0.337 OA
ENDROOT
BRANCH   1   2
ATOM      2  C   UNL     1     -25.292   0.199  11.116  1.00  0.00    +0.211 C 
ATOM      3  C   UNL     1     -24.528  -0.476   9.960  1.00  0.00    +0.243 C 
ATOM      4  O   UNL     1     -23.118  -0.603  10.241  1.00  0.00    -0.492 OA
ATOM      5  C   UNL     1     -22.537   0.509  10.783  1.00  0.00    +0.187 C 
ATOM      6  C   UNL     1     -24.689   1.608  11.345  1.00  0.00    +0.235 C 
ATOM      7  C   UNL     1     -23.192   1.564  11.276  1.00  0.00    +0.058 C 
BRANCH   3   8
ATOM      8  C   UNL     1     -25.068  -1.881   9.659  1.00  0.00    +0.280 C 
BRANCH   8   9
ATOM      9  O   UNL     1     -23.977  -2.816   9.557  1.00  0.00    -0.462 OA
BRANCH   9  10
ATOM     10  C   UNL     1     -24.164  -3.972  10.250  1.00  0.00    +0.302 C 
ATOM     11  O   UNL     1     -25.229  -4.361  10.708  1.00  0.00    -0.253 OA
ATOM     12  C   UNL     1     -22.865  -4.706  10.382  1.00  0.00    +0.139 C 
ENDBRANCH   9  10
ENDBRANCH   8   9
ENDBRANCH   3   8
BRANCH   6  13
ATOM     13  O   UNL     1     -25.136   2.491  10.297  1.00  0.00    -0.455 OA
BRANCH  13  14
ATOM     14  C   UNL     1     -25.254   3.805  10.621  1.00  0.00    +0.303 C 
ATOM     15  O   UNL     1     -24.902   4.754   9.936  1.00  0.00    -0.253 OA
ATOM     16  C   UNL     1     -25.908   3.935  11.964  1.00  0.00    +0.139 C 
ENDBRANCH  13  14
ENDBRANCH   6  13
ENDBRANCH   1   2
BRANCH   1  17
ATOM     17  C   UNL     1     -27.484  -0.741  11.403  1.00  0.00    +0.296 C 
ATOM     18  O   UNL     1     -27.300  -0.728  12.810  1.00  0.00    -0.338 OA
ATOM     19  C   UNL     1     -28.966  -0.474  11.065  1.00  0.00    +0.277 C 
ATOM     20  C   UNL     1     -28.058  -1.706  13.537  1.00  0.00    +0.204 C 
ATOM     21  C   UNL     1     -29.872  -1.558  11.694  1.00  0.00    +0.266 C 
ATOM     22  C   UNL     1     -29.110  -2.457  12.691  1.00  0.00    +0.253 C 
BRANCH  19  23
ATOM     23  O   UNL     1     -29.302   0.859  11.530  1.00  0.00    -0.453 OA
BRANCH  23  24
ATOM     24  C   UNL     1     -29.423   1.808  10.566  1.00  0.00    +0.303 C 
ATOM     25  O   UNL     1     -28.539   2.571  10.206  1.00  0.00    -0.253 OA
ATOM     26  C   UNL     1     -30.815   1.810  10.016  1.00  0.00    +0.139 C 
ENDBRANCH  23  24
ENDBRANCH  19  23
BRANCH  20  27
ATOM     27  C   UNL     1     -28.602  -1.056  14.818  1.00  0.00    +0.269 C 
BRANCH  27  28
ATOM     28  O   UNL     1     -28.014   0.235  15.020  1.00  0.00    -0.463 OA
BRANCH  28  29
ATOM     29  C   UNL     1     -28.806   1.285  14.675  1.00  0.00    +0.302 C 
ATOM     30  O   UNL     1     -28.426   2.325  14.155  1.00  0.00    -0.253 OA
ATOM     31  C   UNL     1     -30.232   0.987  15.016  1.00  0.00    +0.139 C 
ENDBRANCH  28  29
ENDBRANCH  27  28
ENDBRANCH  20  27
BRANCH  21  32
ATOM     32  O   UNL     1     -31.052  -0.975  12.291  1.00  0.00    -0.454 OA
BRANCH  32  33
ATOM     33  C   UNL     1     -32.216  -1.130  11.602  1.00  0.00    +0.303 C 
ATOM     34  O   UNL     1     -32.921  -0.228  11.172  1.00  0.00    -0.253 OA
ATOM     35  C   UNL     1     -32.511  -2.586  11.418  1.00  0.00    +0.139 C 
ENDBRANCH  32  33
ENDBRANCH  21  32
BRANCH  22  36
ATOM     36  O   UNL     1     -30.032  -3.219  13.493  1.00  0.00    -0.455 OA
BRANCH  36  37
ATOM     37  C   UNL     1     -29.691  -4.513  13.734  1.00  0.00    +0.303 C 
ATOM     38  O   UNL     1     -28.706  -5.072  13.276  1.00  0.00    -0.253 OA
ATOM     39  C   UNL     1     -30.688  -5.148  14.654  1.00  0.00    +0.139 C 
ENDBRANCH  36  37
ENDBRANCH  22  36
ENDBRANCH   1  17
TORSDOF 16
ENDMDL
