MODEL 1
REMARK VINA RESULT:    -8.263      0.000      0.000
REMARK INTER + INTRA:         -10.015
REMARK INTER:                  -9.712
REMARK INTRA:                  -0.303
REMARK UNBOUND:                -0.303
REMARK SMILES Cn1ncc2c(NCc3ccccc3)ncnc21
REMARK SMILES IDX 7 1 6 3 2 4 3 5 18 6 4 7 5 8 17 9 16 10 15 11 1 12 8 13 9 14
REMARK SMILES IDX 10 15 14 16 11 17 13 18 12 19
REMARK H PARENT 7 2
ROOT
ATOM      1  N   UNL     1     -25.698   5.030   8.152  1.00  0.00    -0.365 N 
ATOM      2  H   UNL     1     -25.069   4.756   7.406  1.00  0.00    +0.162 HD
ENDROOT
BRANCH   1   3
ATOM      3  C   UNL     1     -26.358   6.231   7.906  1.00  0.00    +0.140 A 
ATOM      4  N   UNL     1     -25.681   9.304   6.342  1.00  0.00    -0.250 N 
ATOM      5  N   UNL     1     -24.454   8.797   6.076  1.00  0.00    -0.179 NA
ATOM      6  C   UNL     1     -26.495   8.441   7.025  1.00  0.00    +0.163 A 
ATOM      7  C   UNL     1     -24.511   7.569   6.605  1.00  0.00    +0.149 A 
ATOM      8  C   UNL     1     -25.750   7.290   7.219  1.00  0.00    +0.081 A 
ATOM      9  N   UNL     1     -27.759   8.655   7.426  1.00  0.00    -0.217 NA
ATOM     10  C   UNL     1     -28.254   7.580   8.062  1.00  0.00    +0.226 A 
ATOM     11  N   UNL     1     -27.638   6.408   8.321  1.00  0.00    -0.219 NA
ATOM     12  C   UNL     1     -26.006  10.638   5.904  1.00  0.00    +0.176 C 
ENDBRANCH   1   3
BRANCH   1  13
ATOM     13  C   UNL     1     -25.145   4.874   9.486  1.00  0.00    +0.150 C 
BRANCH  13  14
ATOM     14  C   UNL     1     -26.054   3.973  10.289  1.00  0.00    -0.029 A 
ATOM     15  C   UNL     1     -25.923   3.878  11.682  1.00  0.00    +0.005 A 
ATOM     16  C   UNL     1     -27.026   3.193   9.644  1.00  0.00    +0.005 A 
ATOM     17  C   UNL     1     -26.755   3.030  12.415  1.00  0.00    +0.000 A 
ATOM     18  C   UNL     1     -27.858   2.347  10.380  1.00  0.00    +0.000 A 
ATOM     19  C   UNL     1     -27.723   2.267  11.764  1.00  0.00    +0.000 A 
ENDBRANCH  13  14
ENDBRANCH   1  13
TORSDOF 3
ENDMDL
MODEL 2
REMARK VINA RESULT:    -8.220      3.951      6.170
REMARK INTER + INTRA:          -9.965
REMARK INTER:                  -9.415
REMARK INTRA:                  -0.550
REMARK UNBOUND:                -0.303
REMARK SMILES Cn1ncc2c(NCc3ccccc3)ncnc21
REMARK SMILES IDX 7 1 6 3 2 4 3 5 18 6 4 7 5 8 17 9 16 10 15 11 1 12 8 13 9 14
REMARK SMILES IDX 10 15 14 16 11 17 13 18 12 19
REMARK H PARENT 7 2
ROOT
ATOM      1  N   UNL     1     -30.269  10.228   7.199  1.00  0.00    -0.365 N 
ATOM      2  H   UNL     1     -30.491  10.958   7.865  1.00  0.00    +0.162 HD
ENDROOT
BRANCH   1   3
ATOM      3  C   UNL     1     -28.962  10.290   6.725  1.00  0.00    +0.140 A 
ATOM      4  N   UNL     1     -26.048   8.329   6.849  1.00  0.00    -0.250 N 
ATOM      5  N   UNL     1     -26.774   7.458   7.589  1.00  0.00    -0.179 NA
ATOM      6  C   UNL     1     -26.753   9.436   6.459  1.00  0.00    +0.163 A 
ATOM      7  C   UNL     1     -27.977   8.040   7.653  1.00  0.00    +0.149 A 
ATOM      8  C   UNL     1     -28.026   9.279   6.979  1.00  0.00    +0.081 A 
ATOM      9  N   UNL     1     -26.310  10.468   5.721  1.00  0.00    -0.217 NA
ATOM     10  C   UNL     1     -27.282  11.374   5.524  1.00  0.00    +0.226 A 
ATOM     11  N   UNL     1     -28.553  11.345   5.976  1.00  0.00    -0.219 NA
ATOM     12  C   UNL     1     -24.671   8.029   6.550  1.00  0.00    +0.176 C 
ENDBRANCH   1   3
BRANCH   1  13
ATOM     13  C   UNL     1     -31.295  10.005   6.195  1.00  0.00    +0.150 C 
BRANCH  13  14
ATOM     14  C   UNL     1     -31.844   8.606   6.360  1.00  0.00    -0.029 A 
ATOM     15  C   UNL     1     -32.377   7.910   5.265  1.00  0.00    +0.005 A 
ATOM     16  C   UNL     1     -31.855   7.995   7.623  1.00  0.00    +0.005 A 
ATOM     17  C   UNL     1     -32.897   6.625   5.429  1.00  0.00    +0.000 A 
ATOM     18  C   UNL     1     -32.375   6.710   7.784  1.00  0.00    +0.000 A 
ATOM     19  C   UNL     1     -32.893   6.025   6.687  1.00  0.00    +0.000 A 
ENDBRANCH  13  14
ENDBRANCH   1  13
TORSDOF 3
ENDMDL
MODEL 3
REMARK VINA RESULT:    -8.033      4.167      5.927
REMARK INTER + INTRA:          -9.745
REMARK INTER:                  -9.274
REMARK INTRA:                  -0.471
REMARK UNBOUND:                -0.303
REMARK SMILES Cn1ncc2c(NCc3ccccc3)ncnc21
REMARK SMILES IDX 7 1 6 3 2 4 3 5 18 6 4 7 5 8 17 9 16 10 15 11 1 12 8 13 9 14
REMARK SMILES IDX 10 15 14 16 11 17 13 18 12 19
REMARK H PARENT 7 2
ROOT
ATOM      1  N   UNL     1     -31.456   9.406   7.268  1.00  0.00    -0.365 N 
ATOM      2  H   UNL     1     -32.155   9.998   7.700  1.00  0.00    +0.162 HD
ENDROOT
BRANCH   1   3
ATOM      3  C   UNL     1     -30.320  10.098   6.858  1.00  0.00    +0.140 A 
ATOM      4  N   UNL     1     -26.845   9.583   6.762  1.00  0.00    -0.250 N 
ATOM      5  N   UNL     1     -27.099   8.376   7.322  1.00  0.00    -0.179 NA
ATOM      6  C   UNL     1     -27.970  10.329   6.535  1.00  0.00    +0.163 A 
ATOM      7  C   UNL     1     -28.432   8.368   7.438  1.00  0.00    +0.149 A 
ATOM      8  C   UNL     1     -29.032   9.558   6.976  1.00  0.00    +0.081 A 
ATOM      9  N   UNL     1     -28.040  11.557   5.993  1.00  0.00    -0.217 NA
ATOM     10  C   UNL     1     -29.313  11.978   5.912  1.00  0.00    +0.226 A 
ATOM     11  N   UNL     1     -30.431  11.334   6.308  1.00  0.00    -0.219 NA
ATOM     12  C   UNL     1     -25.485   9.954   6.467  1.00  0.00    +0.176 C 
ENDBRANCH   1   3
BRANCH   1  13
ATOM     13  C   UNL     1     -31.991   8.450   6.314  1.00  0.00    +0.150 C 
BRANCH  13  14
ATOM     14  C   UNL     1     -32.461   7.224   7.064  1.00  0.00    -0.029 A 
ATOM     15  C   UNL     1     -33.687   6.618   6.751  1.00  0.00    +0.005 A 
ATOM     16  C   UNL     1     -31.688   6.693   8.107  1.00  0.00    +0.005 A 
ATOM     17  C   UNL     1     -34.122   5.496   7.459  1.00  0.00    +0.000 A 
ATOM     18  C   UNL     1     -32.125   5.571   8.813  1.00  0.00    +0.000 A 
ATOM     19  C   UNL     1     -33.341   4.972   8.487  1.00  0.00    +0.000 A 
ENDBRANCH  13  14
ENDBRANCH   1  13
TORSDOF 3
ENDMDL
MODEL 4
REMARK VINA RESULT:    -8.002      5.119      8.459
REMARK INTER + INTRA:          -9.708
REMARK INTER:                  -9.385
REMARK INTRA:                  -0.323
REMARK UNBOUND:                -0.303
REMARK SMILES Cn1ncc2c(NCc3ccccc3)ncnc21
REMARK SMILES IDX 7 1 6 3 2 4 3 5 18 6 4 7 5 8 17 9 16 10 15 11 1 12 8 13 9 14
REMARK SMILES IDX 10 15 14 16 11 17 13 18 12 19
REMARK H PARENT 7 2
ROOT
ATOM      1  N   UNL     1     -30.417   8.321   6.948  1.00  0.00    -0.365 N 
ATOM      2  H   UNL     1     -29.636   8.151   6.325  1.00  0.00    +0.162 HD
ENDROOT
BRANCH   1   3
ATOM      3  C   UNL     1     -31.548   7.572   6.634  1.00  0.00    +0.140 A 
ATOM      4  N   UNL     1     -33.539   5.101   8.145  1.00  0.00    -0.250 N 
ATOM      5  N   UNL     1     -32.696   5.194   9.200  1.00  0.00    -0.179 NA
ATOM      6  C   UNL     1     -33.219   5.942   7.113  1.00  0.00    +0.163 A 
ATOM      7  C   UNL     1     -31.826   6.135   8.814  1.00  0.00    +0.149 A 
ATOM      8  C   UNL     1     -32.091   6.633   7.521  1.00  0.00    +0.081 A 
ATOM      9  N   UNL     1     -33.864   6.079   5.942  1.00  0.00    -0.217 NA
ATOM     10  C   UNL     1     -33.275   7.008   5.171  1.00  0.00    +0.226 A 
ATOM     11  N   UNL     1     -32.177   7.743   5.444  1.00  0.00    -0.219 NA
ATOM     12  C   UNL     1     -34.642   4.175   8.199  1.00  0.00    +0.176 C 
ENDBRANCH   1   3
BRANCH   1  13
ATOM     13  C   UNL     1     -30.652   9.724   7.242  1.00  0.00    +0.150 C 
BRANCH  13  14
ATOM     14  C   UNL     1     -29.549  10.546   6.613  1.00  0.00    -0.029 A 
ATOM     15  C   UNL     1     -29.789  11.860   6.185  1.00  0.00    +0.005 A 
ATOM     16  C   UNL     1     -28.276   9.990   6.420  1.00  0.00    +0.005 A 
ATOM     17  C   UNL     1     -28.770  12.606   5.590  1.00  0.00    +0.000 A 
ATOM     18  C   UNL     1     -27.259  10.739   5.825  1.00  0.00    +0.000 A 
ATOM     19  C   UNL     1     -27.506  12.047   5.412  1.00  0.00    +0.000 A 
ENDBRANCH  13  14
ENDBRANCH   1  13
TORSDOF 3
ENDMDL
MODEL 5
REMARK VINA RESULT:    -7.966      8.380     11.147
REMARK INTER + INTRA:          -9.666
REMARK INTER:                  -9.374
REMARK INTRA:                  -0.293
REMARK UNBOUND:                -0.303
REMARK SMILES Cn1ncc2c(NCc3ccccc3)ncnc21
REMARK SMILES IDX 7 1 6 3 2 4 3 5 18 6 4 7 5 8 17 9 16 10 15 11 1 12 8 13 9 14
REMARK SMILES IDX 10 15 14 16 11 17 13 18 12 19
REMARK H PARENT 7 2
ROOT
ATOM      1  N   UNL     1     -35.114   5.871   8.775  1.00  0.00    -0.365 N 
ATOM      2  H   UNL     1     -34.397   5.812   9.488  1.00  0.00    +0.162 HD
ENDROOT
BRANCH   1   3
ATOM      3  C   UNL     1     -36.376   5.490   9.225  1.00  0.00    +0.140 A 
ATOM      4  N   UNL     1     -37.868   2.694  10.743  1.00  0.00    -0.250 N 
ATOM      5  N   UNL     1     -36.641   2.125  10.694  1.00  0.00    -0.179 NA
ATOM      6  C   UNL     1     -37.906   3.960  10.223  1.00  0.00    +0.163 A 
ATOM      7  C   UNL     1     -35.886   3.076  10.132  1.00  0.00    +0.149 A 
ATOM      8  C   UNL     1     -36.616   4.238   9.806  1.00  0.00    +0.081 A 
ATOM      9  N   UNL     1     -38.971   4.775  10.134  1.00  0.00    -0.217 NA
ATOM     10  C   UNL     1     -38.635   5.951   9.577  1.00  0.00    +0.226 A 
ATOM     11  N   UNL     1     -37.426   6.344   9.125  1.00  0.00    -0.219 NA
ATOM     12  C   UNL     1     -38.969   1.958  11.310  1.00  0.00    +0.176 C 
ENDBRANCH   1   3
BRANCH   1  13
ATOM     13  C   UNL     1     -34.717   5.336   7.484  1.00  0.00    +0.150 C 
BRANCH  13  14
ATOM     14  C   UNL     1     -33.598   6.186   6.926  1.00  0.00    -0.029 A 
ATOM     15  C   UNL     1     -32.582   6.671   7.761  1.00  0.00    +0.005 A 
ATOM     16  C   UNL     1     -33.581   6.529   5.566  1.00  0.00    +0.005 A 
ATOM     17  C   UNL     1     -31.561   7.470   7.242  1.00  0.00    +0.000 A 
ATOM     18  C   UNL     1     -32.559   7.327   5.049  1.00  0.00    +0.000 A 
ATOM     19  C   UNL     1     -31.549   7.795   5.887  1.00  0.00    +0.000 A 
ENDBRANCH  13  14
ENDBRANCH   1  13
TORSDOF 3
ENDMDL
MODEL 6
REMARK VINA RESULT:    -7.562      4.536      8.186
REMARK INTER + INTRA:          -9.191
REMARK INTER:                  -8.867
REMARK INTRA:                  -0.324
REMARK UNBOUND:                -0.303
REMARK SMILES Cn1ncc2c(NCc3ccccc3)ncnc21
REMARK SMILES IDX 7 1 6 3 2 4 3 5 18 6 4 7 5 8 17 9 16 10 15 11 1 12 8 13 9 14
REMARK SMILES IDX 10 15 14 16 11 17 13 18 12 19
REMARK H PARENT 7 2
ROOT
ATOM      1  N   UNL     1     -29.582   8.581   6.821  1.00  0.00    -0.365 N 
ATOM      2  H   UNL     1     -29.340   8.434   5.848  1.00  0.00    +0.162 HD
ENDROOT
BRANCH   1   3
ATOM      3  C   UNL     1     -30.450   7.617   7.327  1.00  0.00    +0.140 A 
ATOM      4  N   UNL     1     -33.504   6.130   6.428  1.00  0.00    -0.250 N 
ATOM      5  N   UNL     1     -33.472   6.933   5.339  1.00  0.00    -0.179 NA
ATOM      6  C   UNL     1     -32.426   6.288   7.257  1.00  0.00    +0.163 A 
ATOM      7  C   UNL     1     -32.327   7.608   5.491  1.00  0.00    +0.149 A 
ATOM      8  C   UNL     1     -31.634   7.260   6.670  1.00  0.00    +0.081 A 
ATOM      9  N   UNL     1     -32.176   5.635   8.405  1.00  0.00    -0.217 NA
ATOM     10  C   UNL     1     -31.016   6.040   8.949  1.00  0.00    +0.226 A 
ATOM     11  N   UNL     1     -30.160   6.974   8.487  1.00  0.00    -0.219 NA
ATOM     12  C   UNL     1     -34.611   5.226   6.609  1.00  0.00    +0.176 C 
ENDBRANCH   1   3
BRANCH   1  13
ATOM     13  C   UNL     1     -29.903   9.958   7.155  1.00  0.00    +0.150 C 
BRANCH  13  14
ATOM     14  C   UNL     1     -28.973  10.874   6.393  1.00  0.00    -0.029 A 
ATOM     15  C   UNL     1     -27.671  10.467   6.067  1.00  0.00    +0.005 A 
ATOM     16  C   UNL     1     -29.392  12.162   6.028  1.00  0.00    +0.005 A 
ATOM     17  C   UNL     1     -26.812  11.325   5.378  1.00  0.00    +0.000 A 
ATOM     18  C   UNL     1     -28.532  13.019   5.338  1.00  0.00    +0.000 A 
ATOM     19  C   UNL     1     -27.244  12.599   5.013  1.00  0.00    +0.000 A 
ENDBRANCH  13  14
ENDBRANCH   1  13
TORSDOF 3
ENDMDL
MODEL 7
REMARK VINA RESULT:    -7.179      7.880     10.907
REMARK INTER + INTRA:          -8.741
REMARK INTER:                  -8.415
REMARK INTRA:                  -0.327
REMARK UNBOUND:                -0.303
REMARK SMILES Cn1ncc2c(NCc3ccccc3)ncnc21
REMARK SMILES IDX 7 1 6 3 2 4 3 5 18 6 4 7 5 8 17 9 16 10 15 11 1 12 8 13 9 14
REMARK SMILES IDX 10 15 14 16 11 17 13 18 12 19
REMARK H PARENT 7 2
ROOT
ATOM      1  N   UNL     1     -34.516   5.241   9.000  1.00  0.00    -0.365 N 
ATOM      2  H   UNL     1     -33.619   5.556   9.351  1.00  0.00    +0.162 HD
ENDROOT
BRANCH   1   3
ATOM      3  C   UNL     1     -34.980   4.087   9.626  1.00  0.00    +0.140 A 
ATOM      4  N   UNL     1     -38.048   2.776  10.731  1.00  0.00    -0.250 N 
ATOM      5  N   UNL     1     -38.602   3.923  10.272  1.00  0.00    -0.179 NA
ATOM      6  C   UNL     1     -36.693   2.711  10.549  1.00  0.00    +0.163 A 
ATOM      7  C   UNL     1     -37.553   4.591   9.777  1.00  0.00    +0.149 A 
ATOM      8  C   UNL     1     -36.335   3.895   9.929  1.00  0.00    +0.081 A 
ATOM      9  N   UNL     1     -35.870   1.706  10.896  1.00  0.00    -0.217 NA
ATOM     10  C   UNL     1     -34.601   1.981  10.553  1.00  0.00    +0.226 A 
ATOM     11  N   UNL     1     -34.120   3.090   9.955  1.00  0.00    -0.219 NA
ATOM     12  C   UNL     1     -38.890   1.777  11.337  1.00  0.00    +0.176 C 
ENDBRANCH   1   3
BRANCH   1  13
ATOM     13  C   UNL     1     -34.632   5.264   7.553  1.00  0.00    +0.150 C 
BRANCH  13  14
ATOM     14  C   UNL     1     -33.531   6.132   6.988  1.00  0.00    -0.029 A 
ATOM     15  C   UNL     1     -32.536   6.662   7.823  1.00  0.00    +0.005 A 
ATOM     16  C   UNL     1     -33.508   6.445   5.621  1.00  0.00    +0.005 A 
ATOM     17  C   UNL     1     -31.532   7.477   7.297  1.00  0.00    +0.000 A 
ATOM     18  C   UNL     1     -32.502   7.259   5.097  1.00  0.00    +0.000 A 
ATOM     19  C   UNL     1     -31.514   7.773   5.935  1.00  0.00    +0.000 A 
ENDBRANCH  13  14
ENDBRANCH   1  13
TORSDOF 3
ENDMDL
MODEL 8
REMARK VINA RESULT:    -7.174      7.362      8.910
REMARK INTER + INTRA:          -8.735
REMARK INTER:                  -8.159
REMARK INTRA:                  -0.576
REMARK UNBOUND:                -0.303
REMARK SMILES Cn1ncc2c(NCc3ccccc3)ncnc21
REMARK SMILES IDX 7 1 6 3 2 4 3 5 18 6 4 7 5 8 17 9 16 10 15 11 1 12 8 13 9 14
REMARK SMILES IDX 10 15 14 16 11 17 13 18 12 19
REMARK H PARENT 7 2
ROOT
ATOM      1  N   UNL     1     -34.459   3.494   8.889  1.00  0.00    -0.365 N 
ATOM      2  H   UNL     1     -34.108   2.574   8.652  1.00  0.00    +0.162 HD
ENDROOT
BRANCH   1   3
ATOM      3  C   UNL     1     -33.542   4.515   8.649  1.00  0.00    +0.140 A 
ATOM      4  N   UNL     1     -32.873   6.881   6.139  1.00  0.00    -0.250 N 
ATOM      5  N   UNL     1     -33.928   6.348   5.480  1.00  0.00    -0.179 NA
ATOM      6  C   UNL     1     -32.621   6.283   7.345  1.00  0.00    +0.163 A 
ATOM      7  C   UNL     1     -34.354   5.390   6.311  1.00  0.00    +0.149 A 
ATOM      8  C   UNL     1     -33.576   5.292   7.484  1.00  0.00    +0.081 A 
ATOM      9  N   UNL     1     -31.650   6.590   8.221  1.00  0.00    -0.217 NA
ATOM     10  C   UNL     1     -31.710   5.800   9.306  1.00  0.00    +0.226 A 
ATOM     11  N   UNL     1     -32.579   4.800   9.562  1.00  0.00    -0.219 NA
ATOM     12  C   UNL     1     -32.147   7.976   5.546  1.00  0.00    +0.176 C 
ENDBRANCH   1   3
BRANCH   1  13
ATOM     13  C   UNL     1     -35.155   3.558  10.162  1.00  0.00    +0.150 C 
BRANCH  13  14
ATOM     14  C   UNL     1     -36.336   4.492  10.026  1.00  0.00    -0.029 A 
ATOM     15  C   UNL     1     -36.383   5.698  10.740  1.00  0.00    +0.005 A 
ATOM     16  C   UNL     1     -37.420   4.147   9.204  1.00  0.00    +0.005 A 
ATOM     17  C   UNL     1     -37.485   6.548  10.622  1.00  0.00    +0.000 A 
ATOM     18  C   UNL     1     -38.520   4.998   9.087  1.00  0.00    +0.000 A 
ATOM     19  C   UNL     1     -38.551   6.198   9.794  1.00  0.00    +0.000 A 
ENDBRANCH  13  14
ENDBRANCH   1  13
TORSDOF 3
ENDMDL
MODEL 9
REMARK VINA RESULT:    -6.961      6.762      9.875
REMARK INTER + INTRA:          -8.484
REMARK INTER:                  -8.078
REMARK INTRA:                  -0.407
REMARK UNBOUND:                -0.303
REMARK SMILES Cn1ncc2c(NCc3ccccc3)ncnc21
REMARK SMILES IDX 7 1 6 3 2 4 3 5 18 6 4 7 5 8 17 9 16 10 15 11 1 12 8 13 9 14
REMARK SMILES IDX 10 15 14 16 11 17 13 18 12 19
REMARK H PARENT 7 2
ROOT
ATOM      1  N   UNL     1     -34.311   4.780   8.790  1.00  0.00    -0.365 N 
ATOM      2  H   UNL     1     -33.451   5.222   9.092  1.00  0.00    +0.162 HD
ENDROOT
BRANCH   1   3
ATOM      3  C   UNL     1     -34.532   3.538   9.380  1.00  0.00    +0.140 A 
ATOM      4  N   UNL     1     -32.647   0.725  10.318  1.00  0.00    -0.250 N 
ATOM      5  N   UNL     1     -31.574   1.394   9.835  1.00  0.00    -0.179 NA
ATOM      6  C   UNL     1     -33.821   1.420  10.208  1.00  0.00    +0.163 A 
ATOM      7  C   UNL     1     -32.099   2.552   9.418  1.00  0.00    +0.149 A 
ATOM      8  C   UNL     1     -33.494   2.626   9.613  1.00  0.00    +0.081 A 
ATOM      9  N   UNL     1     -35.045   1.023  10.597  1.00  0.00    -0.217 NA
ATOM     10  C   UNL     1     -35.964   1.969  10.343  1.00  0.00    +0.226 A 
ATOM     11  N   UNL     1     -35.782   3.175   9.767  1.00  0.00    -0.219 NA
ATOM     12  C   UNL     1     -32.467  -0.590  10.879  1.00  0.00    +0.176 C 
ENDBRANCH   1   3
BRANCH   1  13
ATOM     13  C   UNL     1     -34.547   4.849   7.358  1.00  0.00    +0.150 C 
BRANCH  13  14
ATOM     14  C   UNL     1     -33.616   5.879   6.759  1.00  0.00    -0.029 A 
ATOM     15  C   UNL     1     -33.732   6.255   5.414  1.00  0.00    +0.005 A 
ATOM     16  C   UNL     1     -32.600   6.451   7.539  1.00  0.00    +0.005 A 
ATOM     17  C   UNL     1     -32.858   7.195   4.863  1.00  0.00    +0.000 A 
ATOM     18  C   UNL     1     -31.728   7.391   6.987  1.00  0.00    +0.000 A 
ATOM     19  C   UNL     1     -31.859   7.763   5.650  1.00  0.00    +0.000 A 
ENDBRANCH  13  14
ENDBRANCH   1  13
TORSDOF 3
ENDMDL
