MODEL 1
REMARK VINA RESULT:    -6.455      0.000      0.000
REMARK INTER + INTRA:          -7.815
REMARK INTER:                  -7.588
REMARK INTRA:                  -0.227
REMARK UNBOUND:                -0.227
REMARK SMILES CCO[C@@H](C)c1ccccc1
REMARK SMILES IDX 3 1 2 2 1 3 4 4 5 5 6 6 7 7 11 8 8 9 10 10 9 11
REMARK H PARENT
ROOT
ATOM      1  O   UNL     1     -26.085   9.049   7.394  1.00  0.00    -0.374 OA
ENDROOT
BRANCH   1   2
ATOM      2  C   UNL     1     -25.017   8.332   6.783  1.00  0.00    +0.157 C 
ATOM      3  C   UNL     1     -25.045   6.906   7.298  1.00  0.00    +0.035 C 
ENDBRANCH   1   2
BRANCH   1   4
ATOM      4  C   UNL     1     -27.321   8.934   6.678  1.00  0.00    +0.145 C 
ATOM      5  C   UNL     1     -28.383   8.318   7.585  1.00  0.00    +0.044 C 
BRANCH   4   6
ATOM      6  C   UNL     1     -27.755  10.311   6.210  1.00  0.00    -0.020 A 
ATOM      7  C   UNL     1     -26.887  11.146   5.489  1.00  0.00    +0.006 A 
ATOM      8  C   UNL     1     -29.037  10.789   6.526  1.00  0.00    +0.006 A 
ATOM      9  C   UNL     1     -27.293  12.419   5.085  1.00  0.00    +0.000 A 
ATOM     10  C   UNL     1     -29.442  12.062   6.122  1.00  0.00    +0.000 A 
ATOM     11  C   UNL     1     -28.570  12.877   5.402  1.00  0.00    +0.000 A 
ENDBRANCH   4   6
ENDBRANCH   1   4
TORSDOF 3
ENDMDL
MODEL 2
REMARK VINA RESULT:    -6.383      2.526      4.053
REMARK INTER + INTRA:          -7.729
REMARK INTER:                  -7.404
REMARK INTRA:                  -0.325
REMARK UNBOUND:                -0.227
REMARK SMILES CCO[C@@H](C)c1ccccc1
REMARK SMILES IDX 3 1 2 2 1 3 4 4 5 5 6 6 7 7 11 8 8 9 10 10 9 11
REMARK H PARENT
ROOT
ATOM      1  O   UNL     1     -31.262  10.337   6.223  1.00  0.00    -0.374 OA
ENDROOT
BRANCH   1   2
ATOM      2  C   UNL     1     -31.727   9.619   7.361  1.00  0.00    +0.157 C 
ATOM      3  C   UNL     1     -31.163   8.214   7.301  1.00  0.00    +0.035 C 
ENDBRANCH   1   2
BRANCH   1   4
ATOM      4  C   UNL     1     -30.675  11.600   6.556  1.00  0.00    +0.145 C 
ATOM      5  C   UNL     1     -30.766  11.826   8.063  1.00  0.00    +0.044 C 
BRANCH   4   6
ATOM      6  C   UNL     1     -29.226  11.611   6.104  1.00  0.00    -0.020 A 
ATOM      7  C   UNL     1     -28.377  10.519   6.341  1.00  0.00    +0.006 A 
ATOM      8  C   UNL     1     -28.698  12.743   5.462  1.00  0.00    +0.006 A 
ATOM      9  C   UNL     1     -27.041  10.553   5.940  1.00  0.00    +0.000 A 
ATOM     10  C   UNL     1     -27.361  12.777   5.062  1.00  0.00    +0.000 A 
ATOM     11  C   UNL     1     -26.533  11.681   5.300  1.00  0.00    +0.000 A 
ENDBRANCH   4   6
ENDBRANCH   1   4
TORSDOF 3
ENDMDL
MODEL 3
REMARK VINA RESULT:    -6.225      1.115      2.120
REMARK INTER + INTRA:          -7.543
REMARK INTER:                  -7.328
REMARK INTRA:                  -0.215
REMARK UNBOUND:                -0.227
REMARK SMILES CCO[C@@H](C)c1ccccc1
REMARK SMILES IDX 3 1 2 2 1 3 4 4 5 5 6 6 7 7 11 8 8 9 10 10 9 11
REMARK H PARENT
ROOT
ATOM      1  O   UNL     1     -26.449   9.424   7.343  1.00  0.00    -0.374 OA
ENDROOT
BRANCH   1   2
ATOM      2  C   UNL     1     -25.356   9.298   6.440  1.00  0.00    +0.157 C 
ATOM      3  C   UNL     1     -24.592   8.037   6.790  1.00  0.00    +0.035 C 
ENDBRANCH   1   2
BRANCH   1   4
ATOM      4  C   UNL     1     -27.646   8.797   6.867  1.00  0.00    +0.145 C 
ATOM      5  C   UNL     1     -28.071   7.700   7.840  1.00  0.00    +0.044 C 
BRANCH   4   6
ATOM      6  C   UNL     1     -28.739   9.842   6.736  1.00  0.00    -0.020 A 
ATOM      7  C   UNL     1     -30.060   9.573   7.125  1.00  0.00    +0.006 A 
ATOM      8  C   UNL     1     -28.446  11.099   6.183  1.00  0.00    +0.006 A 
ATOM      9  C   UNL     1     -31.058  10.536   6.977  1.00  0.00    +0.000 A 
ATOM     10  C   UNL     1     -29.445  12.063   6.034  1.00  0.00    +0.000 A 
ATOM     11  C   UNL     1     -30.751  11.781   6.431  1.00  0.00    +0.000 A 
ENDBRANCH   4   6
ENDBRANCH   1   4
TORSDOF 3
ENDMDL
MODEL 4
REMARK VINA RESULT:    -6.109      1.877      3.215
REMARK INTER + INTRA:          -7.407
REMARK INTER:                  -7.065
REMARK INTRA:                  -0.342
REMARK UNBOUND:                -0.227
REMARK SMILES CCO[C@@H](C)c1ccccc1
REMARK SMILES IDX 3 1 2 2 1 3 4 4 5 5 6 6 7 7 11 8 8 9 10 10 9 11
REMARK H PARENT
ROOT
ATOM      1  O   UNL     1     -29.924   8.522   6.471  1.00  0.00    -0.374 OA
ENDROOT
BRANCH   1   2
ATOM      2  C   UNL     1     -30.980   8.062   7.307  1.00  0.00    +0.157 C 
ATOM      3  C   UNL     1     -32.025   9.156   7.399  1.00  0.00    +0.035 C 
ENDBRANCH   1   2
BRANCH   1   4
ATOM      4  C   UNL     1     -28.855   9.136   7.202  1.00  0.00    +0.145 C 
ATOM      5  C   UNL     1     -27.708   8.141   7.363  1.00  0.00    +0.044 C 
BRANCH   4   6
ATOM      6  C   UNL     1     -28.386  10.372   6.456  1.00  0.00    -0.020 A 
ATOM      7  C   UNL     1     -27.078  10.473   5.957  1.00  0.00    +0.006 A 
ATOM      8  C   UNL     1     -29.256  11.460   6.283  1.00  0.00    +0.006 A 
ATOM      9  C   UNL     1     -26.655  11.625   5.293  1.00  0.00    +0.000 A 
ATOM     10  C   UNL     1     -28.832  12.613   5.619  1.00  0.00    +0.000 A 
ATOM     11  C   UNL     1     -27.531  12.695   5.125  1.00  0.00    +0.000 A 
ENDBRANCH   4   6
ENDBRANCH   1   4
TORSDOF 3
ENDMDL
MODEL 5
REMARK VINA RESULT:    -5.823      3.356      4.674
REMARK INTER + INTRA:          -7.071
REMARK INTER:                  -6.775
REMARK INTRA:                  -0.296
REMARK UNBOUND:                -0.227
REMARK SMILES CCO[C@@H](C)c1ccccc1
REMARK SMILES IDX 3 1 2 2 1 3 4 4 5 5 6 6 7 7 11 8 8 9 10 10 9 11
REMARK H PARENT
ROOT
ATOM      1  O   UNL     1     -32.534   8.399   6.479  1.00  0.00    -0.374 OA
ENDROOT
BRANCH   1   2
ATOM      2  C   UNL     1     -32.155   7.474   5.466  1.00  0.00    +0.157 C 
ATOM      3  C   UNL     1     -33.353   6.603   5.144  1.00  0.00    +0.035 C 
ENDBRANCH   1   2
BRANCH   1   4
ATOM      4  C   UNL     1     -31.518   8.597   7.470  1.00  0.00    +0.145 C 
ATOM      5  C   UNL     1     -30.770   7.287   7.704  1.00  0.00    +0.044 C 
BRANCH   4   6
ATOM      6  C   UNL     1     -30.562   9.677   6.996  1.00  0.00    -0.020 A 
ATOM      7  C   UNL     1     -31.025  10.945   6.611  1.00  0.00    +0.006 A 
ATOM      8  C   UNL     1     -29.188   9.407   6.902  1.00  0.00    +0.006 A 
ATOM      9  C   UNL     1     -30.137  11.921   6.156  1.00  0.00    +0.000 A 
ATOM     10  C   UNL     1     -28.300  10.384   6.445  1.00  0.00    +0.000 A 
ATOM     11  C   UNL     1     -28.775  11.640   6.073  1.00  0.00    +0.000 A 
ENDBRANCH   4   6
ENDBRANCH   1   4
TORSDOF 3
ENDMDL
MODEL 6
REMARK VINA RESULT:    -5.724      4.209      6.202
REMARK INTER + INTRA:          -6.955
REMARK INTER:                  -6.729
REMARK INTRA:                  -0.226
REMARK UNBOUND:                -0.227
REMARK SMILES CCO[C@@H](C)c1ccccc1
REMARK SMILES IDX 3 1 2 2 1 3 4 4 5 5 6 6 7 7 11 8 8 9 10 10 9 11
REMARK H PARENT
ROOT
ATOM      1  O   UNL     1     -30.942   9.762   6.693  1.00  0.00    -0.374 OA
ENDROOT
BRANCH   1   2
ATOM      2  C   UNL     1     -29.892  10.607   7.149  1.00  0.00    +0.157 C 
ATOM      3  C   UNL     1     -30.507  11.885   7.685  1.00  0.00    +0.035 C 
ENDBRANCH   1   2
BRANCH   1   4
ATOM      4  C   UNL     1     -30.511   8.421   6.430  1.00  0.00    +0.145 C 
ATOM      5  C   UNL     1     -29.564   7.962   7.536  1.00  0.00    +0.044 C 
BRANCH   4   6
ATOM      6  C   UNL     1     -31.725   7.512   6.359  1.00  0.00    -0.020 A 
ATOM      7  C   UNL     1     -32.489   7.403   5.186  1.00  0.00    +0.006 A 
ATOM      8  C   UNL     1     -32.125   6.784   7.490  1.00  0.00    +0.006 A 
ATOM      9  C   UNL     1     -33.616   6.581   5.143  1.00  0.00    +0.000 A 
ATOM     10  C   UNL     1     -33.253   5.962   7.446  1.00  0.00    +0.000 A 
ATOM     11  C   UNL     1     -33.998   5.861   6.272  1.00  0.00    +0.000 A 
ENDBRANCH   4   6
ENDBRANCH   1   4
TORSDOF 3
ENDMDL
MODEL 7
REMARK VINA RESULT:    -5.556      7.034      8.670
REMARK INTER + INTRA:          -6.757
REMARK INTER:                  -6.539
REMARK INTRA:                  -0.218
REMARK UNBOUND:                -0.227
REMARK SMILES CCO[C@@H](C)c1ccccc1
REMARK SMILES IDX 3 1 2 2 1 3 4 4 5 5 6 6 7 7 11 8 8 9 10 10 9 11
REMARK H PARENT
ROOT
ATOM      1  O   UNL     1     -35.784   6.274   8.461  1.00  0.00    -0.374 OA
ENDROOT
BRANCH   1   2
ATOM      2  C   UNL     1     -36.674   5.636   9.371  1.00  0.00    +0.157 C 
ATOM      3  C   UNL     1     -36.979   6.604  10.496  1.00  0.00    +0.035 C 
ENDBRANCH   1   2
BRANCH   1   4
ATOM      4  C   UNL     1     -34.594   5.515   8.212  1.00  0.00    +0.145 C 
ATOM      5  C   UNL     1     -34.970   4.098   7.787  1.00  0.00    +0.044 C 
BRANCH   4   6
ATOM      6  C   UNL     1     -33.785   6.199   7.126  1.00  0.00    -0.020 A 
ATOM      7  C   UNL     1     -32.624   6.929   7.428  1.00  0.00    +0.006 A 
ATOM      8  C   UNL     1     -34.210   6.139   5.790  1.00  0.00    +0.006 A 
ATOM      9  C   UNL     1     -31.903   7.571   6.422  1.00  0.00    +0.000 A 
ATOM     10  C   UNL     1     -33.488   6.783   4.783  1.00  0.00    +0.000 A 
ATOM     11  C   UNL     1     -32.335   7.499   5.099  1.00  0.00    +0.000 A 
ENDBRANCH   4   6
ENDBRANCH   1   4
TORSDOF 3
ENDMDL
MODEL 8
REMARK VINA RESULT:    -5.414      2.201      5.416
REMARK INTER + INTRA:          -6.590
REMARK INTER:                  -6.327
REMARK INTRA:                  -0.264
REMARK UNBOUND:                -0.227
REMARK SMILES CCO[C@@H](C)c1ccccc1
REMARK SMILES IDX 3 1 2 2 1 3 4 4 5 5 6 6 7 7 11 8 8 9 10 10 9 11
REMARK H PARENT
ROOT
ATOM      1  O   UNL     1     -29.707   8.380   7.652  1.00  0.00    -0.374 OA
ENDROOT
BRANCH   1   2
ATOM      2  C   UNL     1     -30.855   8.089   6.862  1.00  0.00    +0.157 C 
ATOM      3  C   UNL     1     -31.976   9.013   7.295  1.00  0.00    +0.035 C 
ENDBRANCH   1   2
BRANCH   1   4
ATOM      4  C   UNL     1     -28.549   8.691   6.867  1.00  0.00    +0.145 C 
ATOM      5  C   UNL     1     -28.107  10.124   7.152  1.00  0.00    +0.044 C 
BRANCH   4   6
ATOM      6  C   UNL     1     -27.439   7.714   7.207  1.00  0.00    -0.020 A 
ATOM      7  C   UNL     1     -27.643   6.659   8.110  1.00  0.00    +0.006 A 
ATOM      8  C   UNL     1     -26.164   7.875   6.642  1.00  0.00    +0.006 A 
ATOM      9  C   UNL     1     -26.606   5.783   8.431  1.00  0.00    +0.000 A 
ATOM     10  C   UNL     1     -25.126   6.998   6.964  1.00  0.00    +0.000 A 
ATOM     11  C   UNL     1     -25.348   5.952   7.858  1.00  0.00    +0.000 A 
ENDBRANCH   4   6
ENDBRANCH   1   4
TORSDOF 3
ENDMDL
MODEL 9
REMARK VINA RESULT:    -5.402      6.473      8.107
REMARK INTER + INTRA:          -6.576
REMARK INTER:                  -6.323
REMARK INTRA:                  -0.254
REMARK UNBOUND:                -0.227
REMARK SMILES CCO[C@@H](C)c1ccccc1
REMARK SMILES IDX 3 1 2 2 1 3 4 4 5 5 6 6 7 7 11 8 8 9 10 10 9 11
REMARK H PARENT
ROOT
ATOM      1  O   UNL     1     -33.503   4.964   9.487  1.00  0.00    -0.374 OA
ENDROOT
BRANCH   1   2
ATOM      2  C   UNL     1     -34.175   4.310  10.558  1.00  0.00    +0.157 C 
ATOM      3  C   UNL     1     -34.013   5.152  11.807  1.00  0.00    +0.035 C 
ENDBRANCH   1   2
BRANCH   1   4
ATOM      4  C   UNL     1     -34.271   4.996   8.277  1.00  0.00    +0.145 C 
ATOM      5  C   UNL     1     -35.668   5.535   8.572  1.00  0.00    +0.044 C 
BRANCH   4   6
ATOM      6  C   UNL     1     -33.564   5.876   7.262  1.00  0.00    -0.020 A 
ATOM      7  C   UNL     1     -33.973   5.917   5.920  1.00  0.00    +0.006 A 
ATOM      8  C   UNL     1     -32.455   6.645   7.649  1.00  0.00    +0.006 A 
ATOM      9  C   UNL     1     -33.300   6.713   4.993  1.00  0.00    +0.000 A 
ATOM     10  C   UNL     1     -31.781   7.440   6.721  1.00  0.00    +0.000 A 
ATOM     11  C   UNL     1     -32.204   7.475   5.393  1.00  0.00    +0.000 A 
ENDBRANCH   4   6
ENDBRANCH   1   4
TORSDOF 3
ENDMDL
