REMARK SMILES O=[N+]([O-])c1ccccc1OC[C@@H]1CO1
REMARK SMILES IDX 4 1 9 2 8 3 7 4 6 5 5 6 2 7 1 8 3 9 10 10 11 11 12 12 13 13
REMARK SMILES IDX 14 14
REMARK H PARENT
ROOT
ATOM      1  C   UNL     1      -1.795  -0.926  -0.227  1.00  0.00    +0.310 A 
ATOM      2  C   UNL     1      -0.618  -0.321   0.237  1.00  0.00    +0.197 A 
ATOM      3  C   UNL     1      -0.655   1.055   0.478  1.00  0.00    +0.054 A 
ATOM      4  C   UNL     1      -1.832   1.788   0.266  1.00  0.00    +0.004 A 
ATOM      5  C   UNL     1      -2.992   1.160  -0.185  1.00  0.00    +0.007 A 
ATOM      6  C   UNL     1      -2.981  -0.208  -0.434  1.00  0.00    +0.090 A 
ENDROOT
BRANCH   1   7
ATOM      7  N   UNL     1      -1.812  -2.347  -0.515  1.00  0.00    +0.066 N 
ATOM      8  O   UNL     1      -1.066  -2.759  -1.415  1.00  0.00    -0.258 OA
ATOM      9  O   UNL     1      -2.616  -3.039   0.128  1.00  0.00    -0.258 OA
ENDBRANCH   1   7
BRANCH   2  10
ATOM     10  O   UNL     1       0.465  -1.127   0.443  1.00  0.00    -0.484 OA
BRANCH  10  11
ATOM     11  C   UNL     1       1.720  -0.552   0.815  1.00  0.00    +0.264 C 
BRANCH  11  12
ATOM     12  C   UNL     1       2.426   0.011  -0.376  1.00  0.00    +0.181 C 
ATOM     13  C   UNL     1       3.763   0.691  -0.223  1.00  0.00    +0.196 C 
ATOM     14  O   UNL     1       2.552   1.439  -0.397  1.00  0.00    -0.369 OA
ENDBRANCH  11  12
ENDBRANCH  10  11
ENDBRANCH   2  10
TORSDOF 4
