MODEL 1
REMARK VINA RESULT:    -5.379      0.000      0.000
REMARK INTER + INTRA:          -7.533
REMARK INTER:                  -7.266
REMARK INTRA:                  -0.267
REMARK UNBOUND:                -0.267
REMARK SMILES CCCCCCNC(=O)CI
REMARK SMILES IDX 5 1 4 2 3 3 2 4 1 5 6 6 7 7 8 8 9 9 10 11 11 12
REMARK H PARENT 7 10
ROOT
ATOM      1  C   UNL     1     -30.698  11.528   7.686  1.00  0.00    +0.021 C 
ENDROOT
BRANCH   1   2
ATOM      2  C   UNL     1     -30.318  11.927   6.255  1.00  0.00    +0.002 C 
BRANCH   2   3
ATOM      3  C   UNL     1     -28.825  11.771   5.951  1.00  0.00    -0.000 C 
BRANCH   3   4
ATOM      4  C   UNL     1     -28.211  10.511   6.566  1.00  0.00    -0.003 C 
ATOM      5  C   UNL     1     -27.244   9.788   5.641  1.00  0.00    +0.004 C 
ENDBRANCH   3   4
ENDBRANCH   2   3
ENDBRANCH   1   2
BRANCH   1   6
ATOM      6  C   UNL     1     -31.725  10.404   7.808  1.00  0.00    +0.116 C 
BRANCH   6   7
ATOM      7  N   UNL     1     -31.860   9.634   6.589  1.00  0.00    -0.355 N 
ATOM      8  C   UNL     1     -31.919   8.252   6.648  1.00  0.00    +0.229 C 
ATOM      9  O   UNL     1     -31.722   7.610   7.675  1.00  0.00    -0.274 OA
ATOM     10  H   UNL     1     -32.359  10.063   5.817  1.00  0.00    +0.163 HD
BRANCH   8  11
ATOM     11  C   UNL     1     -32.222   7.586   5.320  1.00  0.00    +0.175 C 
ATOM     12  I   UNL     1     -33.763   6.165   5.618  1.00  0.00    -0.076 I 
ENDBRANCH   8  11
ENDBRANCH   6   7
ENDBRANCH   1   6
TORSDOF 6
ENDMDL
MODEL 2
REMARK VINA RESULT:    -5.168      1.605      2.089
REMARK INTER + INTRA:          -7.248
REMARK INTER:                  -7.059
REMARK INTRA:                  -0.188
REMARK UNBOUND:                -0.267
REMARK SMILES CCCCCCNC(=O)CI
REMARK SMILES IDX 5 1 4 2 3 3 2 4 1 5 6 6 7 7 8 8 9 9 10 11 11 12
REMARK H PARENT 7 10
ROOT
ATOM      1  C   UNL     1     -32.059  10.094   7.919  1.00  0.00    +0.021 C 
ENDROOT
BRANCH   1   2
ATOM      2  C   UNL     1     -31.355  11.437   7.687  1.00  0.00    +0.002 C 
BRANCH   2   3
ATOM      3  C   UNL     1     -29.884  11.296   7.285  1.00  0.00    -0.000 C 
BRANCH   3   4
ATOM      4  C   UNL     1     -29.510  12.129   6.057  1.00  0.00    -0.003 C 
ATOM      5  C   UNL     1     -28.094  11.883   5.561  1.00  0.00    +0.004 C 
ENDBRANCH   3   4
ENDBRANCH   2   3
ENDBRANCH   1   2
BRANCH   1   6
ATOM      6  C   UNL     1     -31.737   8.996   6.908  1.00  0.00    +0.116 C 
BRANCH   6   7
ATOM      7  N   UNL     1     -32.836   8.072   6.715  1.00  0.00    -0.355 N 
ATOM      8  C   UNL     1     -32.817   7.188   5.650  1.00  0.00    +0.229 C 
ATOM      9  O   UNL     1     -31.978   7.226   4.755  1.00  0.00    -0.274 OA
ATOM     10  H   UNL     1     -33.331   7.754   7.541  1.00  0.00    +0.163 HD
BRANCH   8  11
ATOM     11  C   UNL     1     -33.945   6.175   5.663  1.00  0.00    +0.175 C 
ATOM     12  I   UNL     1     -34.517   5.833   7.673  1.00  0.00    -0.076 I 
ENDBRANCH   8  11
ENDBRANCH   6   7
ENDBRANCH   1   6
TORSDOF 6
ENDMDL
MODEL 3
REMARK VINA RESULT:    -5.014      3.439      5.322
REMARK INTER + INTRA:          -7.040
REMARK INTER:                  -6.781
REMARK INTRA:                  -0.260
REMARK UNBOUND:                -0.267
REMARK SMILES CCCCCCNC(=O)CI
REMARK SMILES IDX 5 1 4 2 3 3 2 4 1 5 6 6 7 7 8 8 9 9 10 11 11 12
REMARK H PARENT 7 10
ROOT
ATOM      1  C   UNL     1     -31.231  10.550   6.504  1.00  0.00    +0.021 C 
ENDROOT
BRANCH   1   2
ATOM      2  C   UNL     1     -30.913   9.073   6.773  1.00  0.00    +0.002 C 
BRANCH   2   3
ATOM      3  C   UNL     1     -32.133   8.154   6.663  1.00  0.00    -0.000 C 
BRANCH   3   4
ATOM      4  C   UNL     1     -32.217   7.419   5.323  1.00  0.00    -0.003 C 
ATOM      5  C   UNL     1     -33.521   6.661   5.123  1.00  0.00    +0.004 C 
ENDBRANCH   3   4
ENDBRANCH   2   3
ENDBRANCH   1   2
BRANCH   1   6
ATOM      6  C   UNL     1     -30.105  11.534   6.812  1.00  0.00    +0.116 C 
BRANCH   6   7
ATOM      7  N   UNL     1     -28.819  11.087   6.319  1.00  0.00    -0.355 N 
ATOM      8  C   UNL     1     -28.061  11.917   5.511  1.00  0.00    +0.229 C 
ATOM      9  O   UNL     1     -28.473  12.981   5.060  1.00  0.00    -0.274 OA
ATOM     10  H   UNL     1     -28.296  10.439   6.897  1.00  0.00    +0.163 HD
BRANCH   8  11
ATOM     11  C   UNL     1     -26.674  11.388   5.204  1.00  0.00    +0.175 C 
ATOM     12  I   UNL     1     -26.588   9.353   5.782  1.00  0.00    -0.076 I 
ENDBRANCH   8  11
ENDBRANCH   6   7
ENDBRANCH   1   6
TORSDOF 6
ENDMDL
MODEL 4
REMARK VINA RESULT:    -4.955      6.543      7.383
REMARK INTER + INTRA:          -6.960
REMARK INTER:                  -6.823
REMARK INTRA:                  -0.137
REMARK UNBOUND:                -0.267
REMARK SMILES CCCCCCNC(=O)CI
REMARK SMILES IDX 5 1 4 2 3 3 2 4 1 5 6 6 7 7 8 8 9 9 10 11 11 12
REMARK H PARENT 7 10
ROOT
ATOM      1  C   UNL     1     -26.893   5.813   8.021  1.00  0.00    +0.021 C 
ENDROOT
BRANCH   1   2
ATOM      2  C   UNL     1     -26.589   7.180   7.395  1.00  0.00    +0.002 C 
BRANCH   2   3
ATOM      3  C   UNL     1     -27.802   8.112   7.340  1.00  0.00    -0.000 C 
BRANCH   3   4
ATOM      4  C   UNL     1     -27.608   9.304   6.399  1.00  0.00    -0.003 C 
ATOM      5  C   UNL     1     -26.891   8.950   5.105  1.00  0.00    +0.004 C 
ENDBRANCH   3   4
ENDBRANCH   2   3
ENDBRANCH   1   2
BRANCH   1   6
ATOM      6  C   UNL     1     -25.773   5.210   8.867  1.00  0.00    +0.116 C 
BRANCH   6   7
ATOM      7  N   UNL     1     -26.241   4.714  10.145  1.00  0.00    -0.355 N 
ATOM      8  C   UNL     1     -25.374   4.030  10.980  1.00  0.00    +0.229 C 
ATOM      9  O   UNL     1     -24.244   3.687  10.647  1.00  0.00    -0.274 OA
ATOM     10  H   UNL     1     -26.979   5.233  10.606  1.00  0.00    +0.163 HD
BRANCH   8  11
ATOM     11  C   UNL     1     -25.950   3.712  12.346  1.00  0.00    +0.175 C 
ATOM     12  I   UNL     1     -27.339   2.128  12.138  1.00  0.00    -0.076 I 
ENDBRANCH   8  11
ENDBRANCH   6   7
ENDBRANCH   1   6
TORSDOF 6
ENDMDL
MODEL 5
REMARK VINA RESULT:    -4.801      7.268      8.074
REMARK INTER + INTRA:          -6.752
REMARK INTER:                  -6.610
REMARK INTRA:                  -0.141
REMARK UNBOUND:                -0.267
REMARK SMILES CCCCCCNC(=O)CI
REMARK SMILES IDX 5 1 4 2 3 3 2 4 1 5 6 6 7 7 8 8 9 9 10 11 11 12
REMARK H PARENT 7 10
ROOT
ATOM      1  C   UNL     1     -26.862   5.478   8.404  1.00  0.00    +0.021 C 
ENDROOT
BRANCH   1   2
ATOM      2  C   UNL     1     -27.128   6.882   7.845  1.00  0.00    +0.002 C 
BRANCH   2   3
ATOM      3  C   UNL     1     -28.550   7.386   8.106  1.00  0.00    -0.000 C 
BRANCH   3   4
ATOM      4  C   UNL     1     -28.912   8.627   7.286  1.00  0.00    -0.003 C 
ATOM      5  C   UNL     1     -27.831   9.696   7.287  1.00  0.00    +0.004 C 
ENDBRANCH   3   4
ENDBRANCH   2   3
ENDBRANCH   1   2
BRANCH   1   6
ATOM      6  C   UNL     1     -25.418   5.190   8.806  1.00  0.00    +0.116 C 
BRANCH   6   7
ATOM      7  N   UNL     1     -25.148   3.774   8.953  1.00  0.00    -0.355 N 
ATOM      8  C   UNL     1     -24.928   3.239  10.210  1.00  0.00    +0.229 C 
ATOM      9  O   UNL     1     -24.807   3.921  11.223  1.00  0.00    -0.274 OA
ATOM     10  H   UNL     1     -25.563   3.147   8.274  1.00  0.00    +0.163 HD
BRANCH   8  11
ATOM     11  C   UNL     1     -24.820   1.727  10.231  1.00  0.00    +0.175 C 
ATOM     12  I   UNL     1     -22.781   1.202  10.455  1.00  0.00    -0.076 I 
ENDBRANCH   8  11
ENDBRANCH   6   7
ENDBRANCH   1   6
TORSDOF 6
ENDMDL
MODEL 6
REMARK VINA RESULT:    -4.792      3.566      4.633
REMARK INTER + INTRA:          -6.740
REMARK INTER:                  -6.601
REMARK INTRA:                  -0.139
REMARK UNBOUND:                -0.267
REMARK SMILES CCCCCCNC(=O)CI
REMARK SMILES IDX 5 1 4 2 3 3 2 4 1 5 6 6 7 7 8 8 9 9 10 11 11 12
REMARK H PARENT 7 10
ROOT
ATOM      1  C   UNL     1     -32.452   7.075   7.573  1.00  0.00    +0.021 C 
ENDROOT
BRANCH   1   2
ATOM      2  C   UNL     1     -31.610   8.196   6.951  1.00  0.00    +0.002 C 
BRANCH   2   3
ATOM      3  C   UNL     1     -31.789   9.552   7.638  1.00  0.00    -0.000 C 
BRANCH   3   4
ATOM      4  C   UNL     1     -31.197  10.717   6.842  1.00  0.00    -0.003 C 
ATOM      5  C   UNL     1     -30.641  11.833   7.713  1.00  0.00    +0.004 C 
ENDBRANCH   3   4
ENDBRANCH   2   3
ENDBRANCH   1   2
BRANCH   1   6
ATOM      6  C   UNL     1     -33.790   6.798   6.892  1.00  0.00    +0.116 C 
BRANCH   6   7
ATOM      7  N   UNL     1     -34.917   6.937   7.791  1.00  0.00    -0.355 N 
ATOM      8  C   UNL     1     -35.475   5.814   8.378  1.00  0.00    +0.229 C 
ATOM      9  O   UNL     1     -35.161   4.667   8.076  1.00  0.00    -0.274 OA
ATOM     10  H   UNL     1     -34.984   7.793   8.329  1.00  0.00    +0.163 HD
BRANCH   8  11
ATOM     11  C   UNL     1     -36.536   6.119   9.417  1.00  0.00    +0.175 C 
ATOM     12  I   UNL     1     -37.682   4.368   9.740  1.00  0.00    -0.076 I 
ENDBRANCH   8  11
ENDBRANCH   6   7
ENDBRANCH   1   6
TORSDOF 6
ENDMDL
MODEL 7
REMARK VINA RESULT:    -4.659      4.529      6.398
REMARK INTER + INTRA:          -6.560
REMARK INTER:                  -6.236
REMARK INTRA:                  -0.324
REMARK UNBOUND:                -0.267
REMARK SMILES CCCCCCNC(=O)CI
REMARK SMILES IDX 5 1 4 2 3 3 2 4 1 5 6 6 7 7 8 8 9 9 10 11 11 12
REMARK H PARENT 7 10
ROOT
ATOM      1  C   UNL     1     -34.397   4.694   7.163  1.00  0.00    +0.021 C 
ENDROOT
BRANCH   1   2
ATOM      2  C   UNL     1     -34.090   5.028   5.697  1.00  0.00    +0.002 C 
BRANCH   2   3
ATOM      3  C   UNL     1     -33.936   6.528   5.430  1.00  0.00    -0.000 C 
BRANCH   3   4
ATOM      4  C   UNL     1     -32.519   6.926   5.010  1.00  0.00    -0.003 C 
ATOM      5  C   UNL     1     -31.762   7.704   6.075  1.00  0.00    +0.004 C 
ENDBRANCH   3   4
ENDBRANCH   2   3
ENDBRANCH   1   2
BRANCH   1   6
ATOM      6  C   UNL     1     -34.354   5.874   8.132  1.00  0.00    +0.116 C 
BRANCH   6   7
ATOM      7  N   UNL     1     -35.565   5.998   8.917  1.00  0.00    -0.355 N 
ATOM      8  C   UNL     1     -35.607   5.498  10.207  1.00  0.00    +0.229 C 
ATOM      9  O   UNL     1     -34.712   4.817  10.698  1.00  0.00    -0.274 OA
ATOM     10  H   UNL     1     -36.159   6.800   8.736  1.00  0.00    +0.163 HD
BRANCH   8  11
ATOM     11  C   UNL     1     -36.875   5.841  10.965  1.00  0.00    +0.175 C 
ATOM     12  I   UNL     1     -38.506   5.756   9.617  1.00  0.00    -0.076 I 
ENDBRANCH   8  11
ENDBRANCH   6   7
ENDBRANCH   1   6
TORSDOF 6
ENDMDL
MODEL 8
REMARK VINA RESULT:    -4.657      4.906      6.135
REMARK INTER + INTRA:          -6.557
REMARK INTER:                  -6.233
REMARK INTRA:                  -0.324
REMARK UNBOUND:                -0.267
REMARK SMILES CCCCCCNC(=O)CI
REMARK SMILES IDX 5 1 4 2 3 3 2 4 1 5 6 6 7 7 8 8 9 9 10 11 11 12
REMARK H PARENT 7 10
ROOT
ATOM      1  C   UNL     1     -31.789   5.863   9.174  1.00  0.00    +0.021 C 
ENDROOT
BRANCH   1   2
ATOM      2  C   UNL     1     -31.462   6.755   7.970  1.00  0.00    +0.002 C 
BRANCH   2   3
ATOM      3  C   UNL     1     -32.702   7.275   7.237  1.00  0.00    -0.000 C 
BRANCH   3   4
ATOM      4  C   UNL     1     -32.689   6.971   5.737  1.00  0.00    -0.003 C 
ATOM      5  C   UNL     1     -33.672   5.886   5.325  1.00  0.00    +0.004 C 
ENDBRANCH   3   4
ENDBRANCH   2   3
ENDBRANCH   1   2
BRANCH   1   6
ATOM      6  C   UNL     1     -33.017   4.968   9.019  1.00  0.00    +0.116 C 
BRANCH   6   7
ATOM      7  N   UNL     1     -33.996   5.173  10.066  1.00  0.00    -0.355 N 
ATOM      8  C   UNL     1     -35.335   5.307   9.743  1.00  0.00    +0.229 C 
ATOM      9  O   UNL     1     -35.747   5.404   8.591  1.00  0.00    -0.274 OA
ATOM     10  H   UNL     1     -33.801   4.768  10.974  1.00  0.00    +0.163 HD
BRANCH   8  11
ATOM     11  C   UNL     1     -36.262   5.353  10.943  1.00  0.00    +0.175 C 
ATOM     12  I   UNL     1     -37.809   3.937  10.650  1.00  0.00    -0.076 I 
ENDBRANCH   8  11
ENDBRANCH   6   7
ENDBRANCH   1   6
TORSDOF 6
ENDMDL
MODEL 9
REMARK VINA RESULT:    -4.516      5.896      7.633
REMARK INTER + INTRA:          -6.368
REMARK INTER:                  -6.028
REMARK INTRA:                  -0.340
REMARK UNBOUND:                -0.267
REMARK SMILES CCCCCCNC(=O)CI
REMARK SMILES IDX 5 1 4 2 3 3 2 4 1 5 6 6 7 7 8 8 9 9 10 11 11 12
REMARK H PARENT 7 10
ROOT
ATOM      1  C   UNL     1     -34.810   4.134   7.345  1.00  0.00    +0.021 C 
ENDROOT
BRANCH   1   2
ATOM      2  C   UNL     1     -35.009   5.599   7.757  1.00  0.00    +0.002 C 
BRANCH   2   3
ATOM      3  C   UNL     1     -34.011   6.559   7.103  1.00  0.00    -0.000 C 
BRANCH   3   4
ATOM      4  C   UNL     1     -33.672   6.188   5.658  1.00  0.00    -0.003 C 
ATOM      5  C   UNL     1     -32.525   6.996   5.072  1.00  0.00    +0.004 C 
ENDBRANCH   3   4
ENDBRANCH   2   3
ENDBRANCH   1   2
BRANCH   1   6
ATOM      6  C   UNL     1     -35.747   3.129   8.011  1.00  0.00    +0.116 C 
BRANCH   6   7
ATOM      7  N   UNL     1     -36.780   3.764   8.804  1.00  0.00    -0.355 N 
ATOM      8  C   UNL     1     -36.948   3.409  10.131  1.00  0.00    +0.229 C 
ATOM      9  O   UNL     1     -36.359   2.471  10.660  1.00  0.00    -0.274 OA
ATOM     10  H   UNL     1     -37.030   4.718   8.568  1.00  0.00    +0.163 HD
BRANCH   8  11
ATOM     11  C   UNL     1     -37.951   4.265  10.880  1.00  0.00    +0.175 C 
ATOM     12  I   UNL     1     -38.536   5.867   9.626  1.00  0.00    -0.076 I 
ENDBRANCH   8  11
ENDBRANCH   6   7
ENDBRANCH   1   6
TORSDOF 6
ENDMDL
