REMARK SMILES CCO[P@@](N)(=O)c1ccccc1
REMARK SMILES IDX 4 1 6 2 3 3 2 4 1 5 5 6 7 9 8 10 12 11 9 12 11 13 10 14
REMARK H PARENT 5 7 5 8
ROOT
ATOM      1  P   UNL     1      -1.034   1.152   0.435  1.00  0.00    +0.297 P 
ATOM      2  O   UNL     1      -1.623   1.789   1.661  1.00  0.00    -0.270 OA
ENDROOT
BRANCH   1   3
ATOM      3  O   UNL     1      -1.940  -0.105  -0.026  1.00  0.00    -0.315 OA
BRANCH   3   4
ATOM      4  C   UNL     1      -1.538  -0.910  -1.119  1.00  0.00    +0.167 C 
ATOM      5  C   UNL     1      -2.716  -1.760  -1.550  1.00  0.00    +0.035 C 
ENDBRANCH   3   4
ENDBRANCH   1   3
BRANCH   1   6
ATOM      6  N   UNL     1      -1.109   2.196  -0.840  1.00  0.00    -0.255 NA
ATOM      7  H   UNL     1      -2.082   2.441  -0.998  1.00  0.00    +0.129 HD
ATOM      8  H   UNL     1      -0.670   3.075  -0.581  1.00  0.00    +0.129 HD
ENDBRANCH   1   6
BRANCH   1   9
ATOM      9  C   UNL     1       0.628   0.557   0.607  1.00  0.00    +0.052 A 
ATOM     10  C   UNL     1       1.557   0.616  -0.443  1.00  0.00    +0.015 A 
ATOM     11  C   UNL     1       1.034   0.003   1.830  1.00  0.00    +0.015 A 
ATOM     12  C   UNL     1       2.856   0.131  -0.274  1.00  0.00    +0.001 A 
ATOM     13  C   UNL     1       2.332  -0.482   2.000  1.00  0.00    +0.001 A 
ATOM     14  C   UNL     1       3.241  -0.418   0.947  1.00  0.00    +0.000 A 
ENDBRANCH   1   9
TORSDOF 4
