REMARK SMILES CC(C)NC[C@H](O)c1ccc(O)c(O)c1
REMARK SMILES IDX 5 1 4 2 2 4 1 5 3 6 6 7 7 8 8 10 9 11 15 12 10 13 13 14
REMARK SMILES IDX 11 15 14 16 12 18
REMARK H PARENT 4 3 7 9 14 17 12 19
ROOT
ATOM      1  C   UNL     1      -1.043  -0.337   0.005  1.00  0.00    +0.117 C 
ENDROOT
BRANCH   1   2
ATOM      2  N   UNL     1      -2.310  -1.075  -0.135  1.00  0.00    -0.312 NA
ATOM      3  H   UNL     1      -2.177  -1.885  -0.737  1.00  0.00    +0.123 HD
BRANCH   2   4
ATOM      4  C   UNL     1      -3.458  -0.288  -0.595  1.00  0.00    +0.047 C 
ATOM      5  C   UNL     1      -3.731   0.949   0.261  1.00  0.00    +0.024 C 
ATOM      6  C   UNL     1      -3.354   0.080  -2.077  1.00  0.00    +0.024 C 
ENDBRANCH   2   4
ENDBRANCH   1   2
BRANCH   1   7
ATOM      7  C   UNL     1       0.167  -1.273   0.277  1.00  0.00    +0.158 C 
BRANCH   7   8
ATOM      8  O   UNL     1       0.029  -1.931   1.539  1.00  0.00    -0.387 OA
ATOM      9  H   UNL     1       0.897  -2.309   1.758  1.00  0.00    +0.211 HD
ENDBRANCH   7   8
BRANCH   7  10
ATOM     10  C   UNL     1       1.479  -0.513   0.259  1.00  0.00    -0.014 A 
ATOM     11  C   UNL     1       1.822   0.365   1.306  1.00  0.00    +0.010 A 
ATOM     12  C   UNL     1       2.368  -0.667  -0.816  1.00  0.00    +0.056 A 
ATOM     13  C   UNL     1       3.027   1.073   1.287  1.00  0.00    +0.050 A 
ATOM     14  C   UNL     1       3.562   0.040  -0.826  1.00  0.00    +0.157 A 
ATOM     15  C   UNL     1       3.893   0.904   0.214  1.00  0.00    +0.157 A 
BRANCH  14  16
ATOM     16  O   UNL     1       4.418  -0.119  -1.878  1.00  0.00    -0.504 OA
ATOM     17  H   UNL     1       5.173   0.467  -1.668  1.00  0.00    +0.293 HD
ENDBRANCH  14  16
BRANCH  15  18
ATOM     18  O   UNL     1       5.086   1.567   0.136  1.00  0.00    -0.504 OA
ATOM     19  H   UNL     1       5.172   2.127   0.927  1.00  0.00    +0.293 HD
ENDBRANCH  15  18
ENDBRANCH   7  10
ENDBRANCH   1   7
TORSDOF 7
