MODEL 1
REMARK VINA RESULT:    -5.765      0.000      0.000
REMARK INTER + INTRA:         -12.944
REMARK INTER:                 -10.483
REMARK INTRA:                  -2.461
REMARK UNBOUND:                -2.461
REMARK SMILES C[C@@H](CCN(CC(=O)O)CC(=O)O)N(CC(=O)O)CC(=O)O
REMARK SMILES IDX 3 1 2 2 1 3 14 4 15 5 16 6 17 7 18 8 19 10 20 11 21 12 22 13
REMARK SMILES IDX 4 15 5 16 6 17 7 18 8 19 9 20 10 22 11 23 12 24 13 25
REMARK H PARENT 18 9 22 14 9 21 13 26
ROOT
ATOM      1  C   UNL     1     -27.622   2.510  12.030  1.00  0.00    +0.034 C 
ENDROOT
BRANCH   1   2
ATOM      2  C   UNL     1     -28.635   1.401  12.405  1.00  0.00    +0.056 C 
ATOM      3  C   UNL     1     -28.725   1.224  13.927  1.00  0.00    +0.024 C 
BRANCH   2   4
ATOM      4  N   UNL     1     -28.369   0.074  11.809  1.00  0.00    -0.280 NA
BRANCH   4   5
ATOM      5  C   UNL     1     -29.046  -1.037  12.515  1.00  0.00    +0.208 C 
BRANCH   5   6
ATOM      6  C   UNL     1     -28.161  -2.237  12.801  1.00  0.00    +0.317 C 
ATOM      7  O   UNL     1     -28.539  -3.365  13.076  1.00  0.00    -0.251 OA
BRANCH   6   8
ATOM      8  O   UNL     1     -26.846  -1.964  12.675  1.00  0.00    -0.480 OA
ATOM      9  H   UNL     1     -26.408  -2.841  12.685  1.00  0.00    +0.296 HD
ENDBRANCH   6   8
ENDBRANCH   5   6
ENDBRANCH   4   5
BRANCH   4  10
ATOM     10  C   UNL     1     -28.483   0.009  10.336  1.00  0.00    +0.208 C 
BRANCH  10  11
ATOM     11  C   UNL     1     -27.143  -0.188   9.632  1.00  0.00    +0.317 C 
ATOM     12  O   UNL     1     -26.452  -1.198   9.687  1.00  0.00    -0.251 OA
BRANCH  11  13
ATOM     13  O   UNL     1     -26.760   0.836   8.841  1.00  0.00    -0.480 OA
ATOM     14  H   UNL     1     -26.390   1.492   9.466  1.00  0.00    +0.296 HD
ENDBRANCH  11  13
ENDBRANCH  10  11
ENDBRANCH   4  10
ENDBRANCH   2   4
ENDBRANCH   1   2
BRANCH   1  15
ATOM     15  C   UNL     1     -26.165   2.060  12.241  1.00  0.00    +0.087 C 
BRANCH  15  16
ATOM     16  N   UNL     1     -25.294   2.487  11.130  1.00  0.00    -0.283 NA
BRANCH  16  17
ATOM     17  C   UNL     1     -23.927   1.921  11.272  1.00  0.00    +0.208 C 
BRANCH  17  18
ATOM     18  C   UNL     1     -23.604   0.810  10.283  1.00  0.00    +0.317 C 
ATOM     19  O   UNL     1     -23.126  -0.281  10.556  1.00  0.00    -0.251 OA
BRANCH  18  20
ATOM     20  O   UNL     1     -23.837   1.144   8.998  1.00  0.00    -0.480 OA
ATOM     21  H   UNL     1     -23.405   0.433   8.482  1.00  0.00    +0.296 HD
ENDBRANCH  18  20
ENDBRANCH  17  18
ENDBRANCH  16  17
BRANCH  16  22
ATOM     22  C   UNL     1     -25.271   3.964  11.000  1.00  0.00    +0.208 C 
BRANCH  22  23
ATOM     23  C   UNL     1     -25.357   4.396   9.544  1.00  0.00    +0.317 C 
ATOM     24  O   UNL     1     -25.027   5.476   9.075  1.00  0.00    -0.251 OA
BRANCH  23  25
ATOM     25  O   UNL     1     -25.846   3.431   8.734  1.00  0.00    -0.480 OA
ATOM     26  H   UNL     1     -25.356   2.632   9.014  1.00  0.00    +0.296 HD
ENDBRANCH  23  25
ENDBRANCH  22  23
ENDBRANCH  16  22
ENDBRANCH  15  16
ENDBRANCH   1  15
TORSDOF 16
ENDMDL
MODEL 2
REMARK VINA RESULT:    -5.755      1.659      2.015
REMARK INTER + INTRA:         -12.925
REMARK INTER:                 -10.849
REMARK INTRA:                  -2.076
REMARK UNBOUND:                -2.461
REMARK SMILES C[C@@H](CCN(CC(=O)O)CC(=O)O)N(CC(=O)O)CC(=O)O
REMARK SMILES IDX 3 1 2 2 1 3 14 4 15 5 16 6 17 7 18 8 19 10 20 11 21 12 22 13
REMARK SMILES IDX 4 15 5 16 6 17 7 18 8 19 9 20 10 22 11 23 12 24 13 25
REMARK H PARENT 18 9 22 14 9 21 13 26
ROOT
ATOM      1  C   UNL     1     -27.924   2.072  12.215  1.00  0.00    +0.034 C 
ENDROOT
BRANCH   1   2
ATOM      2  C   UNL     1     -28.672   0.731  12.018  1.00  0.00    +0.056 C 
ATOM      3  C   UNL     1     -30.117   0.821  12.531  1.00  0.00    +0.024 C 
BRANCH   2   4
ATOM      4  N   UNL     1     -28.040  -0.446  12.653  1.00  0.00    -0.280 NA
BRANCH   4   5
ATOM      5  C   UNL     1     -28.685  -0.851  13.922  1.00  0.00    +0.208 C 
BRANCH   5   6
ATOM      6  C   UNL     1     -28.131  -0.167  15.159  1.00  0.00    +0.317 C 
ATOM      7  O   UNL     1     -28.699   0.679  15.832  1.00  0.00    -0.251 OA
BRANCH   6   8
ATOM      8  O   UNL     1     -26.912  -0.623  15.512  1.00  0.00    -0.480 OA
ATOM      9  H   UNL     1     -27.039  -1.007  16.405  1.00  0.00    +0.296 HD
ENDBRANCH   6   8
ENDBRANCH   5   6
ENDBRANCH   4   5
BRANCH   4  10
ATOM     10  C   UNL     1     -27.746  -1.572  11.741  1.00  0.00    +0.208 C 
BRANCH  10  11
ATOM     11  C   UNL     1     -26.722  -1.228  10.662  1.00  0.00    +0.317 C 
ATOM     12  O   UNL     1     -26.976  -0.727   9.574  1.00  0.00    -0.251 OA
BRANCH  11  13
ATOM     13  O   UNL     1     -25.436  -1.448  11.008  1.00  0.00    -0.480 OA
ATOM     14  H   UNL     1     -25.447  -1.426  11.987  1.00  0.00    +0.296 HD
ENDBRANCH  11  13
ENDBRANCH  10  11
ENDBRANCH   4  10
ENDBRANCH   2   4
ENDBRANCH   1   2
BRANCH   1  15
ATOM     15  C   UNL     1     -26.401   1.877  12.316  1.00  0.00    +0.087 C 
BRANCH  15  16
ATOM     16  N   UNL     1     -25.725   2.180  11.040  1.00  0.00    -0.283 NA
BRANCH  16  17
ATOM     17  C   UNL     1     -24.250   2.059  11.174  1.00  0.00    +0.208 C 
BRANCH  17  18
ATOM     18  C   UNL     1     -23.567   1.383   9.993  1.00  0.00    +0.317 C 
ATOM     19  O   UNL     1     -22.371   1.407   9.744  1.00  0.00    -0.251 OA
BRANCH  18  20
ATOM     20  O   UNL     1     -24.422   0.766   9.154  1.00  0.00    -0.480 OA
ATOM     21  H   UNL     1     -24.042  -0.129   9.039  1.00  0.00    +0.296 HD
ENDBRANCH  18  20
ENDBRANCH  17  18
ENDBRANCH  16  17
BRANCH  16  22
ATOM     22  C   UNL     1     -26.129   3.507  10.518  1.00  0.00    +0.208 C 
BRANCH  22  23
ATOM     23  C   UNL     1     -26.677   3.406   9.102  1.00  0.00    +0.317 C 
ATOM     24  O   UNL     1     -27.029   4.327   8.381  1.00  0.00    -0.251 OA
BRANCH  23  25
ATOM     25  O   UNL     1     -26.741   2.134   8.651  1.00  0.00    -0.480 OA
ATOM     26  H   UNL     1     -26.512   2.219   7.703  1.00  0.00    +0.296 HD
ENDBRANCH  23  25
ENDBRANCH  22  23
ENDBRANCH  16  22
ENDBRANCH  15  16
ENDBRANCH   1  15
TORSDOF 16
ENDMDL
MODEL 3
REMARK VINA RESULT:    -5.650      1.860      2.719
REMARK INTER + INTRA:         -12.736
REMARK INTER:                 -10.370
REMARK INTRA:                  -2.365
REMARK UNBOUND:                -2.461
REMARK SMILES C[C@@H](CCN(CC(=O)O)CC(=O)O)N(CC(=O)O)CC(=O)O
REMARK SMILES IDX 3 1 2 2 1 3 14 4 15 5 16 6 17 7 18 8 19 10 20 11 21 12 22 13
REMARK SMILES IDX 4 15 5 16 6 17 7 18 8 19 9 20 10 22 11 23 12 24 13 25
REMARK H PARENT 18 9 22 14 9 21 13 26
ROOT
ATOM      1  C   UNL     1     -27.548   2.442  12.106  1.00  0.00    +0.034 C 
ENDROOT
BRANCH   1   2
ATOM      2  C   UNL     1     -28.416   1.161  12.078  1.00  0.00    +0.056 C 
ATOM      3  C   UNL     1     -27.822   0.069  12.979  1.00  0.00    +0.024 C 
BRANCH   2   4
ATOM      4  N   UNL     1     -28.635   0.573  10.739  1.00  0.00    -0.280 NA
BRANCH   4   5
ATOM      5  C   UNL     1     -27.810  -0.628  10.478  1.00  0.00    +0.208 C 
BRANCH   5   6
ATOM      6  C   UNL     1     -26.558  -0.370   9.658  1.00  0.00    +0.317 C 
ATOM      7  O   UNL     1     -25.533  -1.034   9.675  1.00  0.00    -0.251 OA
BRANCH   6   8
ATOM      8  O   UNL     1     -26.684   0.682   8.822  1.00  0.00    -0.480 OA
ATOM      9  H   UNL     1     -25.763   0.938   8.607  1.00  0.00    +0.296 HD
ENDBRANCH   6   8
ENDBRANCH   5   6
ENDBRANCH   4   5
BRANCH   4  10
ATOM     10  C   UNL     1     -30.051   0.429  10.336  1.00  0.00    +0.208 C 
BRANCH  10  11
ATOM     11  C   UNL     1     -30.790   1.761  10.232  1.00  0.00    +0.317 C 
ATOM     12  O   UNL     1     -31.841   2.037  10.797  1.00  0.00    -0.251 OA
BRANCH  11  13
ATOM     13  O   UNL     1     -30.161   2.704   9.501  1.00  0.00    -0.480 OA
ATOM     14  H   UNL     1     -29.487   2.203   8.997  1.00  0.00    +0.296 HD
ENDBRANCH  11  13
ENDBRANCH  10  11
ENDBRANCH   4  10
ENDBRANCH   2   4
ENDBRANCH   1   2
BRANCH   1  15
ATOM     15  C   UNL     1     -26.042   2.123  12.105  1.00  0.00    +0.087 C 
BRANCH  15  16
ATOM     16  N   UNL     1     -25.367   2.671  10.914  1.00  0.00    -0.283 NA
BRANCH  16  17
ATOM     17  C   UNL     1     -23.894   2.714  11.105  1.00  0.00    +0.208 C 
BRANCH  17  18
ATOM     18  C   UNL     1     -23.117   1.763  10.206  1.00  0.00    +0.317 C 
ATOM     19  O   UNL     1     -21.972   1.377  10.386  1.00  0.00    -0.251 OA
BRANCH  18  20
ATOM     20  O   UNL     1     -23.791   1.392   9.099  1.00  0.00    -0.480 OA
ATOM     21  H   UNL     1     -23.356   0.561   8.819  1.00  0.00    +0.296 HD
ENDBRANCH  18  20
ENDBRANCH  17  18
ENDBRANCH  16  17
BRANCH  16  22
ATOM     22  C   UNL     1     -25.918   3.996  10.545  1.00  0.00    +0.208 C 
BRANCH  22  23
ATOM     23  C   UNL     1     -26.228   4.076   9.057  1.00  0.00    +0.317 C 
ATOM     24  O   UNL     1     -25.567   4.637   8.195  1.00  0.00    -0.251 OA
BRANCH  23  25
ATOM     25  O   UNL     1     -27.362   3.423   8.719  1.00  0.00    -0.480 OA
ATOM     26  H   UNL     1     -28.066   4.072   8.922  1.00  0.00    +0.296 HD
ENDBRANCH  23  25
ENDBRANCH  22  23
ENDBRANCH  16  22
ENDBRANCH  15  16
ENDBRANCH   1  15
TORSDOF 16
ENDMDL
MODEL 4
REMARK VINA RESULT:    -5.625      6.665     10.782
REMARK INTER + INTRA:         -12.689
REMARK INTER:                 -11.229
REMARK INTRA:                  -1.460
REMARK UNBOUND:                -2.461
REMARK SMILES C[C@@H](CCN(CC(=O)O)CC(=O)O)N(CC(=O)O)CC(=O)O
REMARK SMILES IDX 3 1 2 2 1 3 14 4 15 5 16 6 17 7 18 8 19 10 20 11 21 12 22 13
REMARK SMILES IDX 4 15 5 16 6 17 7 18 8 19 9 20 10 22 11 23 12 24 13 25
REMARK H PARENT 18 9 22 14 9 21 13 26
ROOT
ATOM      1  C   UNL     1     -28.391   8.476   6.853  1.00  0.00    +0.034 C 
ENDROOT
BRANCH   1   2
ATOM      2  C   UNL     1     -28.771   9.948   7.145  1.00  0.00    +0.056 C 
ATOM      3  C   UNL     1     -30.294  10.120   7.242  1.00  0.00    +0.024 C 
BRANCH   2   4
ATOM      4  N   UNL     1     -28.265  10.938   6.169  1.00  0.00    -0.280 NA
BRANCH   4   5
ATOM      5  C   UNL     1     -28.838  12.291   6.348  1.00  0.00    +0.208 C 
BRANCH   5   6
ATOM      6  C   UNL     1     -28.111  13.390   5.595  1.00  0.00    +0.317 C 
ATOM      7  O   UNL     1     -27.335  14.203   6.074  1.00  0.00    -0.251 OA
BRANCH   6   8
ATOM      8  O   UNL     1     -28.361  13.376   4.269  1.00  0.00    -0.480 OA
ATOM      9  H   UNL     1     -27.696  12.760   3.898  1.00  0.00    +0.296 HD
ENDBRANCH   6   8
ENDBRANCH   5   6
ENDBRANCH   4   5
BRANCH   4  10
ATOM     10  C   UNL     1     -26.801  10.928   5.961  1.00  0.00    +0.208 C 
BRANCH  10  11
ATOM     11  C   UNL     1     -26.397  10.687   4.508  1.00  0.00    +0.317 C 
ATOM     12  O   UNL     1     -26.019  11.548   3.723  1.00  0.00    -0.251 OA
BRANCH  11  13
ATOM     13  O   UNL     1     -26.408   9.394   4.121  1.00  0.00    -0.480 OA
ATOM     14  H   UNL     1     -27.191   9.328   3.538  1.00  0.00    +0.296 HD
ENDBRANCH  11  13
ENDBRANCH  10  11
ENDBRANCH   4  10
ENDBRANCH   2   4
ENDBRANCH   1   2
BRANCH   1  15
ATOM     15  C   UNL     1     -28.074   7.693   8.139  1.00  0.00    +0.087 C 
BRANCH  15  16
ATOM     16  N   UNL     1     -26.818   6.929   8.019  1.00  0.00    -0.283 NA
BRANCH  16  17
ATOM     17  C   UNL     1     -26.129   7.230   6.737  1.00  0.00    +0.208 C 
BRANCH  17  18
ATOM     18  C   UNL     1     -24.773   7.903   6.896  1.00  0.00    +0.317 C 
ATOM     19  O   UNL     1     -24.130   8.447   6.010  1.00  0.00    -0.251 OA
BRANCH  18  20
ATOM     20  O   UNL     1     -24.264   7.807   8.141  1.00  0.00    -0.480 OA
ATOM     21  H   UNL     1     -23.389   7.389   8.011  1.00  0.00    +0.296 HD
ENDBRANCH  18  20
ENDBRANCH  17  18
ENDBRANCH  16  17
BRANCH  16  22
ATOM     22  C   UNL     1     -27.051   5.476   8.196  1.00  0.00    +0.208 C 
BRANCH  22  23
ATOM     23  C   UNL     1     -25.859   4.797   8.854  1.00  0.00    +0.317 C 
ATOM     24  O   UNL     1     -24.888   5.340   9.361  1.00  0.00    -0.251 OA
BRANCH  23  25
ATOM     25  O   UNL     1     -25.954   3.449   8.857  1.00  0.00    -0.480 OA
ATOM     26  H   UNL     1     -25.342   3.181   9.572  1.00  0.00    +0.296 HD
ENDBRANCH  23  25
ENDBRANCH  22  23
ENDBRANCH  16  22
ENDBRANCH  15  16
ENDBRANCH   1  15
TORSDOF 16
ENDMDL
MODEL 5
REMARK VINA RESULT:    -5.604      1.825      5.881
REMARK INTER + INTRA:         -12.652
REMARK INTER:                 -11.405
REMARK INTRA:                  -1.246
REMARK UNBOUND:                -2.461
REMARK SMILES C[C@@H](CCN(CC(=O)O)CC(=O)O)N(CC(=O)O)CC(=O)O
REMARK SMILES IDX 3 1 2 2 1 3 14 4 15 5 16 6 17 7 18 8 19 10 20 11 21 12 22 13
REMARK SMILES IDX 4 15 5 16 6 17 7 18 8 19 9 20 10 22 11 23 12 24 13 25
REMARK H PARENT 18 9 22 14 9 21 13 26
ROOT
ATOM      1  C   UNL     1     -27.681   2.287  11.505  1.00  0.00    +0.034 C 
ENDROOT
BRANCH   1   2
ATOM      2  C   UNL     1     -26.212   2.721  11.731  1.00  0.00    +0.056 C 
ATOM      3  C   UNL     1     -26.135   3.990  12.592  1.00  0.00    +0.024 C 
BRANCH   2   4
ATOM      4  N   UNL     1     -25.425   2.960  10.502  1.00  0.00    -0.280 NA
BRANCH   4   5
ATOM      5  C   UNL     1     -25.095   4.386  10.279  1.00  0.00    +0.208 C 
BRANCH   5   6
ATOM      6  C   UNL     1     -25.721   4.993   9.037  1.00  0.00    +0.317 C 
ATOM      7  O   UNL     1     -25.235   5.007   7.916  1.00  0.00    -0.251 OA
BRANCH   6   8
ATOM      8  O   UNL     1     -26.947   5.507   9.262  1.00  0.00    -0.480 OA
ATOM      9  H   UNL     1     -27.567   4.801   8.984  1.00  0.00    +0.296 HD
ENDBRANCH   6   8
ENDBRANCH   5   6
ENDBRANCH   4   5
BRANCH   4  10
ATOM     10  C   UNL     1     -24.288   2.039  10.292  1.00  0.00    +0.208 C 
BRANCH  10  11
ATOM     11  C   UNL     1     -24.677   0.747   9.577  1.00  0.00    +0.317 C 
ATOM     12  O   UNL     1     -25.703   0.573   8.931  1.00  0.00    -0.251 OA
BRANCH  11  13
ATOM     13  O   UNL     1     -23.753  -0.234   9.632  1.00  0.00    -0.480 OA
ATOM     14  H   UNL     1     -23.773  -0.527  10.565  1.00  0.00    +0.296 HD
ENDBRANCH  11  13
ENDBRANCH  10  11
ENDBRANCH   4  10
ENDBRANCH   2   4
ENDBRANCH   1   2
BRANCH   1  15
ATOM     15  C   UNL     1     -28.355   1.822  12.808  1.00  0.00    +0.087 C 
BRANCH  15  16
ATOM     16  N   UNL     1     -28.102   0.394  13.076  1.00  0.00    -0.283 NA
BRANCH  16  17
ATOM     17  C   UNL     1     -28.182  -0.408  11.827  1.00  0.00    +0.208 C 
BRANCH  17  18
ATOM     18  C   UNL     1     -27.225  -1.591  11.780  1.00  0.00    +0.317 C 
ATOM     19  O   UNL     1     -27.513  -2.758  11.998  1.00  0.00    -0.251 OA
BRANCH  18  20
ATOM     20  O   UNL     1     -25.949  -1.245  11.522  1.00  0.00    -0.480 OA
ATOM     21  H   UNL     1     -25.692  -1.815  10.769  1.00  0.00    +0.296 HD
ENDBRANCH  18  20
ENDBRANCH  17  18
ENDBRANCH  16  17
BRANCH  16  22
ATOM     22  C   UNL     1     -29.007  -0.125  14.128  1.00  0.00    +0.208 C 
BRANCH  22  23
ATOM     23  C   UNL     1     -28.423   0.083  15.518  1.00  0.00    +0.317 C 
ATOM     24  O   UNL     1     -27.426  -0.447  15.986  1.00  0.00    -0.251 OA
BRANCH  23  25
ATOM     25  O   UNL     1     -29.122   0.973  16.256  1.00  0.00    -0.480 OA
ATOM     26  H   UNL     1     -29.986   0.531  16.385  1.00  0.00    +0.296 HD
ENDBRANCH  23  25
ENDBRANCH  22  23
ENDBRANCH  16  22
ENDBRANCH  15  16
ENDBRANCH   1  15
TORSDOF 16
ENDMDL
MODEL 6
REMARK VINA RESULT:    -5.555      1.922      5.697
REMARK INTER + INTRA:         -12.562
REMARK INTER:                 -11.064
REMARK INTRA:                  -1.498
REMARK UNBOUND:                -2.461
REMARK SMILES C[C@@H](CCN(CC(=O)O)CC(=O)O)N(CC(=O)O)CC(=O)O
REMARK SMILES IDX 3 1 2 2 1 3 14 4 15 5 16 6 17 7 18 8 19 10 20 11 21 12 22 13
REMARK SMILES IDX 4 15 5 16 6 17 7 18 8 19 9 20 10 22 11 23 12 24 13 25
REMARK H PARENT 18 9 22 14 9 21 13 26
ROOT
ATOM      1  C   UNL     1     -27.784   2.180  11.729  1.00  0.00    +0.034 C 
ENDROOT
BRANCH   1   2
ATOM      2  C   UNL     1     -26.283   2.552  11.664  1.00  0.00    +0.056 C 
ATOM      3  C   UNL     1     -26.011   3.885  12.377  1.00  0.00    +0.024 C 
BRANCH   2   4
ATOM      4  N   UNL     1     -25.712   2.643  10.303  1.00  0.00    -0.280 NA
BRANCH   4   5
ATOM      5  C   UNL     1     -24.874   1.480   9.934  1.00  0.00    +0.208 C 
BRANCH   5   6
ATOM      6  C   UNL     1     -23.730   1.195  10.891  1.00  0.00    +0.317 C 
ATOM      7  O   UNL     1     -22.803   1.946  11.152  1.00  0.00    -0.251 OA
BRANCH   6   8
ATOM      8  O   UNL     1     -23.842  -0.000  11.506  1.00  0.00    -0.480 OA
ATOM      9  H   UNL     1     -24.374   0.182  12.309  1.00  0.00    +0.296 HD
ENDBRANCH   6   8
ENDBRANCH   5   6
ENDBRANCH   4   5
BRANCH   4  10
ATOM     10  C   UNL     1     -26.660   3.060   9.247  1.00  0.00    +0.208 C 
BRANCH  10  11
ATOM     11  C   UNL     1     -26.444   4.494   8.770  1.00  0.00    +0.317 C 
ATOM     12  O   UNL     1     -27.249   5.410   8.881  1.00  0.00    -0.251 OA
BRANCH  11  13
ATOM     13  O   UNL     1     -25.224   4.742   8.249  1.00  0.00    -0.480 OA
ATOM     14  H   UNL     1     -25.372   5.499   7.647  1.00  0.00    +0.296 HD
ENDBRANCH  11  13
ENDBRANCH  10  11
ENDBRANCH   4  10
ENDBRANCH   2   4
ENDBRANCH   1   2
BRANCH   1  15
ATOM     15  C   UNL     1     -28.288   2.056  13.179  1.00  0.00    +0.087 C 
BRANCH  15  16
ATOM     16  N   UNL     1     -28.248   0.660  13.654  1.00  0.00    -0.283 NA
BRANCH  16  17
ATOM     17  C   UNL     1     -28.408  -0.295  12.527  1.00  0.00    +0.208 C 
BRANCH  17  18
ATOM     18  C   UNL     1     -27.260  -1.282  12.374  1.00  0.00    +0.317 C 
ATOM     19  O   UNL     1     -26.521  -1.384  11.406  1.00  0.00    -0.251 OA
BRANCH  18  20
ATOM     20  O   UNL     1     -27.133  -2.131  13.413  1.00  0.00    -0.480 OA
ATOM     21  H   UNL     1     -26.368  -2.693  13.174  1.00  0.00    +0.296 HD
ENDBRANCH  18  20
ENDBRANCH  17  18
ENDBRANCH  16  17
BRANCH  16  22
ATOM     22  C   UNL     1     -29.246   0.427  14.725  1.00  0.00    +0.208 C 
BRANCH  22  23
ATOM     23  C   UNL     1     -28.617  -0.247  15.936  1.00  0.00    +0.317 C 
ATOM     24  O   UNL     1     -27.433  -0.502  16.105  1.00  0.00    -0.251 OA
BRANCH  23  25
ATOM     25  O   UNL     1     -29.517  -0.557  16.895  1.00  0.00    -0.480 OA
ATOM     26  H   UNL     1     -29.019  -1.158  17.486  1.00  0.00    +0.296 HD
ENDBRANCH  23  25
ENDBRANCH  22  23
ENDBRANCH  16  22
ENDBRANCH  15  16
ENDBRANCH   1  15
TORSDOF 16
ENDMDL
MODEL 7
REMARK VINA RESULT:    -5.436      2.762      3.354
REMARK INTER + INTRA:         -12.346
REMARK INTER:                 -10.111
REMARK INTRA:                  -2.235
REMARK UNBOUND:                -2.461
REMARK SMILES C[C@@H](CCN(CC(=O)O)CC(=O)O)N(CC(=O)O)CC(=O)O
REMARK SMILES IDX 3 1 2 2 1 3 14 4 15 5 16 6 17 7 18 8 19 10 20 11 21 12 22 13
REMARK SMILES IDX 4 15 5 16 6 17 7 18 8 19 9 20 10 22 11 23 12 24 13 25
REMARK H PARENT 18 9 22 14 9 21 13 26
ROOT
ATOM      1  C   UNL     1     -28.301   1.908  12.990  1.00  0.00    +0.034 C 
ENDROOT
BRANCH   1   2
ATOM      2  C   UNL     1     -29.408   0.894  13.370  1.00  0.00    +0.056 C 
ATOM      3  C   UNL     1     -28.807  -0.377  13.988  1.00  0.00    +0.024 C 
BRANCH   2   4
ATOM      4  N   UNL     1     -30.297   0.482  12.263  1.00  0.00    -0.280 NA
BRANCH   4   5
ATOM      5  C   UNL     1     -29.814  -0.707  11.527  1.00  0.00    +0.208 C 
BRANCH   5   6
ATOM      6  C   UNL     1     -29.679  -0.512  10.028  1.00  0.00    +0.317 C 
ATOM      7  O   UNL     1     -30.548  -0.711   9.192  1.00  0.00    -0.251 OA
BRANCH   6   8
ATOM      8  O   UNL     1     -28.473  -0.028   9.666  1.00  0.00    -0.480 OA
ATOM      9  H   UNL     1     -27.835  -0.714   9.951  1.00  0.00    +0.296 HD
ENDBRANCH   6   8
ENDBRANCH   5   6
ENDBRANCH   4   5
BRANCH   4  10
ATOM     10  C   UNL     1     -31.739   0.441  12.593  1.00  0.00    +0.208 C 
BRANCH  10  11
ATOM     11  C   UNL     1     -32.625   1.067  11.520  1.00  0.00    +0.317 C 
ATOM     12  O   UNL     1     -32.866   2.262  11.404  1.00  0.00    -0.251 OA
BRANCH  11  13
ATOM     13  O   UNL     1     -33.107   0.201  10.604  1.00  0.00    -0.480 OA
ATOM     14  H   UNL     1     -32.937  -0.679  10.998  1.00  0.00    +0.296 HD
ENDBRANCH  11  13
ENDBRANCH  10  11
ENDBRANCH   4  10
ENDBRANCH   2   4
ENDBRANCH   1   2
BRANCH   1  15
ATOM     15  C   UNL     1     -26.953   1.218  12.714  1.00  0.00    +0.087 C 
BRANCH  15  16
ATOM     16  N   UNL     1     -26.412   1.583  11.392  1.00  0.00    -0.283 NA
BRANCH  16  17
ATOM     17  C   UNL     1     -25.148   0.854  11.111  1.00  0.00    +0.208 C 
BRANCH  17  18
ATOM     18  C   UNL     1     -24.653   0.988   9.677  1.00  0.00    +0.317 C 
ATOM     19  O   UNL     1     -23.575   1.446   9.328  1.00  0.00    -0.251 OA
BRANCH  18  20
ATOM     20  O   UNL     1     -25.555   0.599   8.754  1.00  0.00    -0.480 OA
ATOM     21  H   UNL     1     -26.069  -0.104   9.201  1.00  0.00    +0.296 HD
ENDBRANCH  18  20
ENDBRANCH  17  18
ENDBRANCH  16  17
BRANCH  16  22
ATOM     22  C   UNL     1     -26.247   3.050  11.263  1.00  0.00    +0.208 C 
BRANCH  22  23
ATOM     23  C   UNL     1     -26.964   3.586  10.032  1.00  0.00    +0.317 C 
ATOM     24  O   UNL     1     -26.901   4.719   9.577  1.00  0.00    -0.251 OA
BRANCH  23  25
ATOM     25  O   UNL     1     -27.723   2.654   9.416  1.00  0.00    -0.480 OA
ATOM     26  H   UNL     1     -28.604   2.772   9.826  1.00  0.00    +0.296 HD
ENDBRANCH  23  25
ENDBRANCH  22  23
ENDBRANCH  16  22
ENDBRANCH  15  16
ENDBRANCH   1  15
TORSDOF 16
ENDMDL
MODEL 8
REMARK VINA RESULT:    -5.315      2.001      2.967
REMARK INTER + INTRA:         -12.126
REMARK INTER:                 -10.601
REMARK INTRA:                  -1.525
REMARK UNBOUND:                -2.461
REMARK SMILES C[C@@H](CCN(CC(=O)O)CC(=O)O)N(CC(=O)O)CC(=O)O
REMARK SMILES IDX 3 1 2 2 1 3 14 4 15 5 16 6 17 7 18 8 19 10 20 11 21 12 22 13
REMARK SMILES IDX 4 15 5 16 6 17 7 18 8 19 9 20 10 22 11 23 12 24 13 25
REMARK H PARENT 18 9 22 14 9 21 13 26
ROOT
ATOM      1  C   UNL     1     -29.002   1.510  11.852  1.00  0.00    +0.034 C 
ENDROOT
BRANCH   1   2
ATOM      2  C   UNL     1     -29.956   0.365  12.273  1.00  0.00    +0.056 C 
ATOM      3  C   UNL     1     -31.235   0.918  12.918  1.00  0.00    +0.024 C 
BRANCH   2   4
ATOM      4  N   UNL     1     -29.378  -0.633  13.198  1.00  0.00    -0.280 NA
BRANCH   4   5
ATOM      5  C   UNL     1     -29.806  -0.455  14.603  1.00  0.00    +0.208 C 
BRANCH   5   6
ATOM      6  C   UNL     1     -28.730   0.085  15.528  1.00  0.00    +0.317 C 
ATOM      7  O   UNL     1     -27.559  -0.263  15.555  1.00  0.00    -0.251 OA
BRANCH   6   8
ATOM      8  O   UNL     1     -29.175   1.069  16.336  1.00  0.00    -0.480 OA
ATOM      9  H   UNL     1     -28.564   1.058  17.102  1.00  0.00    +0.296 HD
ENDBRANCH   6   8
ENDBRANCH   5   6
ENDBRANCH   4   5
BRANCH   4  10
ATOM     10  C   UNL     1     -29.430  -2.034  12.726  1.00  0.00    +0.208 C 
BRANCH  10  11
ATOM     11  C   UNL     1     -28.139  -2.808  12.980  1.00  0.00    +0.317 C 
ATOM     12  O   UNL     1     -28.007  -4.022  12.890  1.00  0.00    -0.251 OA
BRANCH  11  13
ATOM     13  O   UNL     1     -27.063  -2.042  13.258  1.00  0.00    -0.480 OA
ATOM     14  H   UNL     1     -27.293  -1.609  14.105  1.00  0.00    +0.296 HD
ENDBRANCH  11  13
ENDBRANCH  10  11
ENDBRANCH   4  10
ENDBRANCH   2   4
ENDBRANCH   1   2
BRANCH   1  15
ATOM     15  C   UNL     1     -27.548   1.237  12.276  1.00  0.00    +0.087 C 
BRANCH  15  16
ATOM     16  N   UNL     1     -26.587   1.678  11.247  1.00  0.00    -0.283 NA
BRANCH  16  17
ATOM     17  C   UNL     1     -25.388   0.801  11.223  1.00  0.00    +0.208 C 
BRANCH  17  18
ATOM     18  C   UNL     1     -25.303  -0.112  10.008  1.00  0.00    +0.317 C 
ATOM     19  O   UNL     1     -25.146  -1.324  10.027  1.00  0.00    -0.251 OA
BRANCH  18  20
ATOM     20  O   UNL     1     -25.357   0.545   8.832  1.00  0.00    -0.480 OA
ATOM     21  H   UNL     1     -25.644  -0.135   8.190  1.00  0.00    +0.296 HD
ENDBRANCH  18  20
ENDBRANCH  17  18
ENDBRANCH  16  17
BRANCH  16  22
ATOM     22  C   UNL     1     -26.227   3.105  11.422  1.00  0.00    +0.208 C 
BRANCH  22  23
ATOM     23  C   UNL     1     -25.226   3.561  10.370  1.00  0.00    +0.317 C 
ATOM     24  O   UNL     1     -25.382   3.564   9.158  1.00  0.00    -0.251 OA
BRANCH  23  25
ATOM     25  O   UNL     1     -24.069   4.011  10.902  1.00  0.00    -0.480 OA
ATOM     26  H   UNL     1     -24.004   3.524  11.748  1.00  0.00    +0.296 HD
ENDBRANCH  23  25
ENDBRANCH  22  23
ENDBRANCH  16  22
ENDBRANCH  15  16
ENDBRANCH   1  15
TORSDOF 16
ENDMDL
MODEL 9
REMARK VINA RESULT:    -5.205      1.709      2.861
REMARK INTER + INTRA:         -11.926
REMARK INTER:                 -10.712
REMARK INTRA:                  -1.214
REMARK UNBOUND:                -2.461
REMARK SMILES C[C@@H](CCN(CC(=O)O)CC(=O)O)N(CC(=O)O)CC(=O)O
REMARK SMILES IDX 3 1 2 2 1 3 14 4 15 5 16 6 17 7 18 8 19 10 20 11 21 12 22 13
REMARK SMILES IDX 4 15 5 16 6 17 7 18 8 19 9 20 10 22 11 23 12 24 13 25
REMARK H PARENT 18 9 22 14 9 21 13 26
ROOT
ATOM      1  C   UNL     1     -26.617   1.706  12.197  1.00  0.00    +0.034 C 
ENDROOT
BRANCH   1   2
ATOM      2  C   UNL     1     -27.840   0.843  11.801  1.00  0.00    +0.056 C 
ATOM      3  C   UNL     1     -29.028   1.723  11.386  1.00  0.00    +0.024 C 
BRANCH   2   4
ATOM      4  N   UNL     1     -28.314  -0.097  12.839  1.00  0.00    -0.280 NA
BRANCH   4   5
ATOM      5  C   UNL     1     -29.105   0.552  13.909  1.00  0.00    +0.208 C 
BRANCH   5   6
ATOM      6  C   UNL     1     -28.544   0.371  15.308  1.00  0.00    +0.317 C 
ATOM      7  O   UNL     1     -27.583  -0.316  15.618  1.00  0.00    -0.251 OA
BRANCH   6   8
ATOM      8  O   UNL     1     -29.193   1.106  16.234  1.00  0.00    -0.480 OA
ATOM      9  H   UNL     1     -30.133   1.080  15.959  1.00  0.00    +0.296 HD
ENDBRANCH   6   8
ENDBRANCH   5   6
ENDBRANCH   4   5
BRANCH   4  10
ATOM     10  C   UNL     1     -28.908  -1.353  12.329  1.00  0.00    +0.208 C 
BRANCH  10  11
ATOM     11  C   UNL     1     -28.303  -2.607  12.954  1.00  0.00    +0.317 C 
ATOM     12  O   UNL     1     -28.815  -3.720  12.955  1.00  0.00    -0.251 OA
BRANCH  11  13
ATOM     13  O   UNL     1     -27.070  -2.443  13.479  1.00  0.00    -0.480 OA
ATOM     14  H   UNL     1     -26.767  -3.355  13.663  1.00  0.00    +0.296 HD
ENDBRANCH  11  13
ENDBRANCH  10  11
ENDBRANCH   4  10
ENDBRANCH   2   4
ENDBRANCH   1   2
BRANCH   1  15
ATOM     15  C   UNL     1     -25.326   1.233  11.504  1.00  0.00    +0.087 C 
BRANCH  15  16
ATOM     16  N   UNL     1     -24.668   2.328  10.768  1.00  0.00    -0.283 NA
BRANCH  16  17
ATOM     17  C   UNL     1     -23.218   2.393  11.087  1.00  0.00    +0.208 C 
BRANCH  17  18
ATOM     18  C   UNL     1     -22.377   1.325  10.401  1.00  0.00    +0.317 C 
ATOM     19  O   UNL     1     -22.253   1.171   9.195  1.00  0.00    -0.251 OA
BRANCH  18  20
ATOM     20  O   UNL     1     -21.785   0.470  11.257  1.00  0.00    -0.480 OA
ATOM     21  H   UNL     1     -22.531  -0.001  11.682  1.00  0.00    +0.296 HD
ENDBRANCH  18  20
ENDBRANCH  17  18
ENDBRANCH  16  17
BRANCH  16  22
ATOM     22  C   UNL     1     -25.347   3.624  11.007  1.00  0.00    +0.208 C 
BRANCH  22  23
ATOM     23  C   UNL     1     -26.068   4.114   9.760  1.00  0.00    +0.317 C 
ATOM     24  O   UNL     1     -27.260   4.359   9.646  1.00  0.00    -0.251 OA
BRANCH  23  25
ATOM     25  O   UNL     1     -25.240   4.291   8.707  1.00  0.00    -0.480 OA
ATOM     26  H   UNL     1     -25.034   3.376   8.425  1.00  0.00    +0.296 HD
ENDBRANCH  23  25
ENDBRANCH  22  23
ENDBRANCH  16  22
ENDBRANCH  15  16
ENDBRANCH   1  15
TORSDOF 16
ENDMDL
