REMARK SMILES CCN(CC)CCCNC(=O)NN=Cc1ccc([N+](=O)[O-])o1
REMARK SMILES IDX 8 1 7 2 6 3 3 4 2 5 1 6 4 7 5 8 9 9 10 10 11 11 12 12 13 15
REMARK SMILES IDX 14 16 15 17 16 18 22 19 17 20 18 21 19 22 20 23 21 24
REMARK H PARENT 9 13 12 14
ROOT
ATOM      1  C   UNL     1      -1.168   0.442  -1.351  1.00  0.00    +0.119 C 
ENDROOT
BRANCH   1   2
ATOM      2  C   UNL     1      -1.606   1.508  -0.350  1.00  0.00    +0.037 C 
BRANCH   2   3
ATOM      3  C   UNL     1      -2.401   1.012   0.869  1.00  0.00    +0.086 C 
BRANCH   3   4
ATOM      4  N   UNL     1      -3.753   0.456   0.684  1.00  0.00    -0.304 NA
BRANCH   4   5
ATOM      5  C   UNL     1      -3.752  -0.947   0.258  1.00  0.00    +0.081 C 
ATOM      6  C   UNL     1      -4.987  -1.692   0.755  1.00  0.00    +0.021 C 
ENDBRANCH   4   5
BRANCH   4   7
ATOM      7  C   UNL     1      -4.662   1.292  -0.111  1.00  0.00    +0.081 C 
ATOM      8  C   UNL     1      -4.894   2.675   0.491  1.00  0.00    +0.021 C 
ENDBRANCH   4   7
ENDBRANCH   3   4
ENDBRANCH   2   3
ENDBRANCH   1   2
BRANCH   1   9
ATOM      9  N   UNL     1      -0.363  -0.614  -0.767  1.00  0.00    -0.337 N 
ATOM     10  C   UNL     1       0.957  -0.387  -0.429  1.00  0.00    +0.335 C 
ATOM     11  O   UNL     1       1.510   0.700  -0.541  1.00  0.00    -0.247 OA
ATOM     12  N   UNL     1       1.549  -1.555   0.043  1.00  0.00    -0.229 N 
ATOM     13  H   UNL     1      -0.549  -1.551  -1.095  1.00  0.00    +0.165 HD
ATOM     14  H   UNL     1       0.911  -2.148   0.564  1.00  0.00    +0.195 HD
BRANCH  12  15
ATOM     15  N   UNL     1       2.833  -1.602   0.541  1.00  0.00    -0.176 NA
ATOM     16  C   UNL     1       3.746  -0.964  -0.124  1.00  0.00    +0.180 C 
BRANCH  16  17
ATOM     17  C   UNL     1       5.101  -0.937   0.355  1.00  0.00    +0.154 A 
ATOM     18  C   UNL     1       5.691  -1.441   1.502  1.00  0.00    +0.060 A 
ATOM     19  O   UNL     1       6.047  -0.314  -0.415  1.00  0.00    -0.400 OA
ATOM     20  C   UNL     1       7.068  -1.109   1.441  1.00  0.00    +0.134 A 
ATOM     21  C   UNL     1       7.223  -0.428   0.257  1.00  0.00    +0.433 A 
BRANCH  21  22
ATOM     22  N   UNL     1       8.372   0.155  -0.360  1.00  0.00    +0.102 N 
ATOM     23  O   UNL     1       8.225   0.700  -1.461  1.00  0.00    -0.256 OA
ATOM     24  O   UNL     1       9.437   0.060   0.265  1.00  0.00    -0.256 OA
ENDBRANCH  21  22
ENDBRANCH  16  17
ENDBRANCH  12  15
ENDBRANCH   1   9
TORSDOF 9
