MODEL 1
REMARK VINA RESULT:    -6.850      0.000      0.000
REMARK INTER + INTRA:          -8.789
REMARK INTER:                  -8.452
REMARK INTRA:                  -0.337
REMARK UNBOUND:                -0.337
REMARK SMILES O=[N+]([O-])c1ccccc1OC[C@@H]1CO1
REMARK SMILES IDX 4 1 9 2 8 3 7 4 6 5 5 6 2 7 1 8 3 9 10 10 11 11 12 12 13 13
REMARK SMILES IDX 14 14
REMARK H PARENT
ROOT
ATOM      1  C   UNL     1     -27.619  10.818   5.944  1.00  0.00    +0.310 A 
ATOM      2  C   UNL     1     -27.858  10.057   7.097  1.00  0.00    +0.197 A 
ATOM      3  C   UNL     1     -29.036  10.313   7.803  1.00  0.00    +0.054 A 
ATOM      4  C   UNL     1     -29.938  11.293   7.360  1.00  0.00    +0.004 A 
ATOM      5  C   UNL     1     -29.681  12.028   6.204  1.00  0.00    +0.007 A 
ATOM      6  C   UNL     1     -28.515  11.793   5.484  1.00  0.00    +0.090 A 
ENDROOT
BRANCH   1   7
ATOM      7  N   UNL     1     -26.403  10.612   5.181  1.00  0.00    +0.066 N 
ATOM      8  O   UNL     1     -25.428  11.328   5.451  1.00  0.00    -0.258 OA
ATOM      9  O   UNL     1     -26.448   9.767   4.274  1.00  0.00    -0.258 OA
ENDBRANCH   1   7
BRANCH   2  10
ATOM     10  O   UNL     1     -26.935   9.105   7.425  1.00  0.00    -0.484 OA
BRANCH  10  11
ATOM     11  C   UNL     1     -27.243   7.721   7.242  1.00  0.00    +0.264 C 
BRANCH  11  12
ATOM     12  C   UNL     1     -26.003   6.924   6.993  1.00  0.00    +0.181 C 
ATOM     13  C   UNL     1     -25.572   5.856   7.965  1.00  0.00    +0.196 C 
ATOM     14  O   UNL     1     -24.937   7.141   7.926  1.00  0.00    -0.369 OA
ENDBRANCH  11  12
ENDBRANCH  10  11
ENDBRANCH   2  10
TORSDOF 4
ENDMDL
MODEL 2
REMARK VINA RESULT:    -6.446      2.334      3.563
REMARK INTER + INTRA:          -8.290
REMARK INTER:                  -7.935
REMARK INTRA:                  -0.354
REMARK UNBOUND:                -0.337
REMARK SMILES O=[N+]([O-])c1ccccc1OC[C@@H]1CO1
REMARK SMILES IDX 4 1 9 2 8 3 7 4 6 5 5 6 2 7 1 8 3 9 10 10 11 11 12 12 13 13
REMARK SMILES IDX 14 14
REMARK H PARENT
ROOT
ATOM      1  C   UNL     1     -27.238  10.584   5.970  1.00  0.00    +0.310 A 
ATOM      2  C   UNL     1     -28.531  10.520   6.507  1.00  0.00    +0.197 A 
ATOM      3  C   UNL     1     -29.360  11.629   6.320  1.00  0.00    +0.054 A 
ATOM      4  C   UNL     1     -28.905  12.752   5.614  1.00  0.00    +0.004 A 
ATOM      5  C   UNL     1     -27.618  12.786   5.080  1.00  0.00    +0.007 A 
ATOM      6  C   UNL     1     -26.773  11.696   5.254  1.00  0.00    +0.090 A 
ENDROOT
BRANCH   1   7
ATOM      7  N   UNL     1     -26.324   9.472   6.150  1.00  0.00    +0.066 N 
ATOM      8  O   UNL     1     -25.738   9.382   7.238  1.00  0.00    -0.258 OA
ATOM      9  O   UNL     1     -26.157   8.722   5.177  1.00  0.00    -0.258 OA
ENDBRANCH   1   7
BRANCH   2  10
ATOM     10  O   UNL     1     -28.890   9.369   7.149  1.00  0.00    -0.484 OA
BRANCH  10  11
ATOM     11  C   UNL     1     -29.859   8.498   6.560  1.00  0.00    +0.264 C 
BRANCH  11  12
ATOM     12  C   UNL     1     -31.002   8.259   7.493  1.00  0.00    +0.181 C 
ATOM     13  C   UNL     1     -32.423   8.296   6.989  1.00  0.00    +0.196 C 
ATOM     14  O   UNL     1     -31.854   9.389   7.723  1.00  0.00    -0.369 OA
ENDBRANCH  11  12
ENDBRANCH  10  11
ENDBRANCH   2  10
TORSDOF 4
ENDMDL
MODEL 3
REMARK VINA RESULT:    -6.093      2.860      3.937
REMARK INTER + INTRA:          -7.855
REMARK INTER:                  -7.454
REMARK INTRA:                  -0.401
REMARK UNBOUND:                -0.337
REMARK SMILES O=[N+]([O-])c1ccccc1OC[C@@H]1CO1
REMARK SMILES IDX 4 1 9 2 8 3 7 4 6 5 5 6 2 7 1 8 3 9 10 10 11 11 12 12 13 13
REMARK SMILES IDX 14 14
REMARK H PARENT
ROOT
ATOM      1  C   UNL     1     -30.856   9.193   7.144  1.00  0.00    +0.310 A 
ATOM      2  C   UNL     1     -29.570   9.621   6.784  1.00  0.00    +0.197 A 
ATOM      3  C   UNL     1     -29.269  10.974   6.962  1.00  0.00    +0.054 A 
ATOM      4  C   UNL     1     -30.224  11.856   7.488  1.00  0.00    +0.004 A 
ATOM      5  C   UNL     1     -31.492  11.403   7.849  1.00  0.00    +0.007 A 
ATOM      6  C   UNL     1     -31.817  10.061   7.680  1.00  0.00    +0.090 A 
ENDROOT
BRANCH   1   7
ATOM      7  N   UNL     1     -31.233   7.805   6.963  1.00  0.00    +0.066 N 
ATOM      8  O   UNL     1     -31.761   7.490   5.887  1.00  0.00    -0.258 OA
ATOM      9  O   UNL     1     -31.047   7.044   7.924  1.00  0.00    -0.258 OA
ENDBRANCH   1   7
BRANCH   2  10
ATOM     10  O   UNL     1     -28.702   8.678   6.312  1.00  0.00    -0.484 OA
BRANCH  10  11
ATOM     11  C   UNL     1     -27.519   8.365   7.052  1.00  0.00    +0.264 C 
BRANCH  11  12
ATOM     12  C   UNL     1     -26.300   8.501   6.197  1.00  0.00    +0.181 C 
ATOM     13  C   UNL     1     -25.429   9.727   6.296  1.00  0.00    +0.196 C 
ATOM     14  O   UNL     1     -26.352   9.543   5.215  1.00  0.00    -0.369 OA
ENDBRANCH  11  12
ENDBRANCH  10  11
ENDBRANCH   2  10
TORSDOF 4
ENDMDL
MODEL 4
REMARK VINA RESULT:    -6.014      2.383      3.109
REMARK INTER + INTRA:          -7.758
REMARK INTER:                  -7.504
REMARK INTRA:                  -0.254
REMARK UNBOUND:                -0.337
REMARK SMILES O=[N+]([O-])c1ccccc1OC[C@@H]1CO1
REMARK SMILES IDX 4 1 9 2 8 3 7 4 6 5 5 6 2 7 1 8 3 9 10 10 11 11 12 12 13 13
REMARK SMILES IDX 14 14
REMARK H PARENT
ROOT
ATOM      1  C   UNL     1     -29.185  11.389   6.214  1.00  0.00    +0.310 A 
ATOM      2  C   UNL     1     -28.273  10.323   6.215  1.00  0.00    +0.197 A 
ATOM      3  C   UNL     1     -27.023  10.546   5.632  1.00  0.00    +0.054 A 
ATOM      4  C   UNL     1     -26.704  11.794   5.077  1.00  0.00    +0.004 A 
ATOM      5  C   UNL     1     -27.624  12.841   5.099  1.00  0.00    +0.007 A 
ATOM      6  C   UNL     1     -28.876  12.644   5.672  1.00  0.00    +0.090 A 
ENDROOT
BRANCH   1   7
ATOM      7  N   UNL     1     -30.505  11.211   6.785  1.00  0.00    +0.066 N 
ATOM      8  O   UNL     1     -31.376  10.696   6.069  1.00  0.00    -0.258 OA
ATOM      9  O   UNL     1     -30.680  11.639   7.936  1.00  0.00    -0.258 OA
ENDBRANCH   1   7
BRANCH   2  10
ATOM     10  O   UNL     1     -28.668   9.158   6.809  1.00  0.00    -0.484 OA
BRANCH  10  11
ATOM     11  C   UNL     1     -27.849   8.560   7.816  1.00  0.00    +0.264 C 
BRANCH  11  12
ATOM     12  C   UNL     1     -27.136   7.358   7.284  1.00  0.00    +0.181 C 
ATOM     13  C   UNL     1     -26.861   6.174   8.175  1.00  0.00    +0.196 C 
ATOM     14  O   UNL     1     -25.836   7.119   7.840  1.00  0.00    -0.369 OA
ENDBRANCH  11  12
ENDBRANCH  10  11
ENDBRANCH   2  10
TORSDOF 4
ENDMDL
MODEL 5
REMARK VINA RESULT:    -5.701      6.134      9.350
REMARK INTER + INTRA:          -7.372
REMARK INTER:                  -6.961
REMARK INTRA:                  -0.411
REMARK UNBOUND:                -0.337
REMARK SMILES O=[N+]([O-])c1ccccc1OC[C@@H]1CO1
REMARK SMILES IDX 4 1 9 2 8 3 7 4 6 5 5 6 2 7 1 8 3 9 10 10 11 11 12 12 13 13
REMARK SMILES IDX 14 14
REMARK H PARENT
ROOT
ATOM      1  C   UNL     1     -26.219   1.120  11.018  1.00  0.00    +0.310 A 
ATOM      2  C   UNL     1     -26.008   2.436  11.454  1.00  0.00    +0.197 A 
ATOM      3  C   UNL     1     -26.882   2.940  12.420  1.00  0.00    +0.054 A 
ATOM      4  C   UNL     1     -27.921   2.147  12.930  1.00  0.00    +0.004 A 
ATOM      5  C   UNL     1     -28.102   0.838  12.488  1.00  0.00    +0.007 A 
ATOM      6  C   UNL     1     -27.247   0.313  11.525  1.00  0.00    +0.090 A 
ENDROOT
BRANCH   1   7
ATOM      7  N   UNL     1     -25.357   0.548  10.001  1.00  0.00    +0.066 N 
ATOM      8  O   UNL     1     -24.370  -0.097  10.382  1.00  0.00    -0.258 OA
ATOM      9  O   UNL     1     -25.645   0.796   8.820  1.00  0.00    -0.258 OA
ENDBRANCH   1   7
BRANCH   2  10
ATOM     10  O   UNL     1     -24.949   3.113  10.920  1.00  0.00    -0.484 OA
BRANCH  10  11
ATOM     11  C   UNL     1     -25.150   4.404  10.338  1.00  0.00    +0.264 C 
BRANCH  11  12
ATOM     12  C   UNL     1     -25.961   4.307   9.086  1.00  0.00    +0.181 C 
ATOM     13  C   UNL     1     -26.434   5.554   8.382  1.00  0.00    +0.196 C 
ATOM     14  O   UNL     1     -27.315   4.766   9.195  1.00  0.00    -0.369 OA
ENDBRANCH  11  12
ENDBRANCH  10  11
ENDBRANCH   2  10
TORSDOF 4
ENDMDL
MODEL 6
REMARK VINA RESULT:    -5.692      5.088      8.673
REMARK INTER + INTRA:          -7.360
REMARK INTER:                  -7.111
REMARK INTRA:                  -0.249
REMARK UNBOUND:                -0.337
REMARK SMILES O=[N+]([O-])c1ccccc1OC[C@@H]1CO1
REMARK SMILES IDX 4 1 9 2 8 3 7 4 6 5 5 6 2 7 1 8 3 9 10 10 11 11 12 12 13 13
REMARK SMILES IDX 14 14
REMARK H PARENT
ROOT
ATOM      1  C   UNL     1     -24.983   2.019  10.610  1.00  0.00    +0.310 A 
ATOM      2  C   UNL     1     -25.821   2.899   9.910  1.00  0.00    +0.197 A 
ATOM      3  C   UNL     1     -27.179   2.894  10.241  1.00  0.00    +0.054 A 
ATOM      4  C   UNL     1     -27.669   2.040  11.241  1.00  0.00    +0.004 A 
ATOM      5  C   UNL     1     -26.812   1.183  11.930  1.00  0.00    +0.007 A 
ATOM      6  C   UNL     1     -25.457   1.169  11.618  1.00  0.00    +0.090 A 
ENDROOT
BRANCH   1   7
ATOM      7  N   UNL     1     -23.569   1.965  10.296  1.00  0.00    +0.066 N 
ATOM      8  O   UNL     1     -23.232   1.359   9.268  1.00  0.00    -0.258 OA
ATOM      9  O   UNL     1     -22.794   2.486  11.113  1.00  0.00    -0.258 OA
ENDBRANCH   1   7
BRANCH   2  10
ATOM     10  O   UNL     1     -25.242   3.713   8.978  1.00  0.00    -0.484 OA
BRANCH  10  11
ATOM     11  C   UNL     1     -25.369   5.132   9.094  1.00  0.00    +0.264 C 
BRANCH  11  12
ATOM     12  C   UNL     1     -25.843   5.735   7.811  1.00  0.00    +0.181 C 
ATOM     13  C   UNL     1     -25.140   6.931   7.222  1.00  0.00    +0.196 C 
ATOM     14  O   UNL     1     -26.387   7.057   7.918  1.00  0.00    -0.369 OA
ENDBRANCH  11  12
ENDBRANCH  10  11
ENDBRANCH   2  10
TORSDOF 4
ENDMDL
MODEL 7
REMARK VINA RESULT:    -5.638      6.275     10.245
REMARK INTER + INTRA:          -7.294
REMARK INTER:                  -6.970
REMARK INTRA:                  -0.323
REMARK UNBOUND:                -0.337
REMARK SMILES O=[N+]([O-])c1ccccc1OC[C@@H]1CO1
REMARK SMILES IDX 4 1 9 2 8 3 7 4 6 5 5 6 2 7 1 8 3 9 10 10 11 11 12 12 13 13
REMARK SMILES IDX 14 14
REMARK H PARENT
ROOT
ATOM      1  C   UNL     1     -24.531   0.522  10.456  1.00  0.00    +0.310 A 
ATOM      2  C   UNL     1     -24.215   1.838  10.822  1.00  0.00    +0.197 A 
ATOM      3  C   UNL     1     -22.862   2.159  10.962  1.00  0.00    +0.054 A 
ATOM      4  C   UNL     1     -21.870   1.194  10.734  1.00  0.00    +0.004 A 
ATOM      5  C   UNL     1     -22.211  -0.105  10.360  1.00  0.00    +0.007 A 
ATOM      6  C   UNL     1     -23.550  -0.450  10.216  1.00  0.00    +0.090 A 
ENDROOT
BRANCH   1   7
ATOM      7  N   UNL     1     -25.918   0.124  10.316  1.00  0.00    +0.066 N 
ATOM      8  O   UNL     1     -26.483  -0.348  11.314  1.00  0.00    -0.258 OA
ATOM      9  O   UNL     1     -26.422   0.237   9.189  1.00  0.00    -0.258 OA
ENDBRANCH   1   7
BRANCH   2  10
ATOM     10  O   UNL     1     -25.251   2.712  10.988  1.00  0.00    -0.484 OA
BRANCH  10  11
ATOM     11  C   UNL     1     -25.118   4.067  10.551  1.00  0.00    +0.264 C 
BRANCH  11  12
ATOM     12  C   UNL     1     -25.741   4.260   9.207  1.00  0.00    +0.181 C 
ATOM     13  C   UNL     1     -25.437   5.492   8.392  1.00  0.00    +0.196 C 
ATOM     14  O   UNL     1     -26.669   5.349   9.111  1.00  0.00    -0.369 OA
ENDBRANCH  11  12
ENDBRANCH  10  11
ENDBRANCH   2  10
TORSDOF 4
ENDMDL
MODEL 8
REMARK VINA RESULT:    -5.523      8.029      9.527
REMARK INTER + INTRA:          -7.152
REMARK INTER:                  -6.746
REMARK INTRA:                  -0.406
REMARK UNBOUND:                -0.337
REMARK SMILES O=[N+]([O-])c1ccccc1OC[C@@H]1CO1
REMARK SMILES IDX 4 1 9 2 8 3 7 4 6 5 5 6 2 7 1 8 3 9 10 10 11 11 12 12 13 13
REMARK SMILES IDX 14 14
REMARK H PARENT
ROOT
ATOM      1  C   UNL     1     -24.796   2.627  10.093  1.00  0.00    +0.310 A 
ATOM      2  C   UNL     1     -25.281   1.341   9.811  1.00  0.00    +0.197 A 
ATOM      3  C   UNL     1     -24.493   0.257  10.206  1.00  0.00    +0.054 A 
ATOM      4  C   UNL     1     -23.270   0.461  10.862  1.00  0.00    +0.004 A 
ATOM      5  C   UNL     1     -22.816   1.749  11.140  1.00  0.00    +0.007 A 
ATOM      6  C   UNL     1     -23.581   2.846  10.757  1.00  0.00    +0.090 A 
ENDROOT
BRANCH   1   7
ATOM      7  N   UNL     1     -25.559   3.791   9.689  1.00  0.00    +0.066 N 
ATOM      8  O   UNL     1     -26.365   4.261  10.505  1.00  0.00    -0.258 OA
ATOM      9  O   UNL     1     -25.386   4.200   8.530  1.00  0.00    -0.258 OA
ENDBRANCH   1   7
BRANCH   2  10
ATOM     10  O   UNL     1     -26.498   1.248   9.198  1.00  0.00    -0.484 OA
BRANCH  10  11
ATOM     11  C   UNL     1     -27.579   0.586   9.858  1.00  0.00    +0.264 C 
BRANCH  11  12
ATOM     12  C   UNL     1     -28.414   1.559  10.626  1.00  0.00    +0.181 C 
ATOM     13  C   UNL     1     -28.265   1.684  12.121  1.00  0.00    +0.196 C 
ATOM     14  O   UNL     1     -29.363   0.976  11.529  1.00  0.00    -0.369 OA
ENDBRANCH  11  12
ENDBRANCH  10  11
ENDBRANCH   2  10
TORSDOF 4
ENDMDL
MODEL 9
REMARK VINA RESULT:    -5.464      9.405     10.553
REMARK INTER + INTRA:          -7.079
REMARK INTER:                  -6.795
REMARK INTRA:                  -0.285
REMARK UNBOUND:                -0.337
REMARK SMILES O=[N+]([O-])c1ccccc1OC[C@@H]1CO1
REMARK SMILES IDX 4 1 9 2 8 3 7 4 6 5 5 6 2 7 1 8 3 9 10 10 11 11 12 12 13 13
REMARK SMILES IDX 14 14
REMARK H PARENT
ROOT
ATOM      1  C   UNL     1     -34.754   4.214   7.273  1.00  0.00    +0.310 A 
ATOM      2  C   UNL     1     -34.756   5.445   7.946  1.00  0.00    +0.197 A 
ATOM      3  C   UNL     1     -34.358   6.573   7.223  1.00  0.00    +0.054 A 
ATOM      4  C   UNL     1     -33.981   6.465   5.876  1.00  0.00    +0.004 A 
ATOM      5  C   UNL     1     -33.999   5.231   5.227  1.00  0.00    +0.007 A 
ATOM      6  C   UNL     1     -34.389   4.093   5.925  1.00  0.00    +0.090 A 
ENDROOT
BRANCH   1   7
ATOM      7  N   UNL     1     -35.136   3.005   7.976  1.00  0.00    +0.066 N 
ATOM      8  O   UNL     1     -36.347   2.787   8.124  1.00  0.00    -0.258 OA
ATOM      9  O   UNL     1     -34.217   2.305   8.426  1.00  0.00    -0.258 OA
ENDBRANCH   1   7
BRANCH   2  10
ATOM     10  O   UNL     1     -35.171   5.450   9.247  1.00  0.00    -0.484 OA
BRANCH  10  11
ATOM     11  C   UNL     1     -36.482   5.916   9.574  1.00  0.00    +0.264 C 
BRANCH  11  12
ATOM     12  C   UNL     1     -36.939   5.358  10.883  1.00  0.00    +0.181 C 
ATOM     13  C   UNL     1     -38.207   4.546  10.969  1.00  0.00    +0.196 C 
ATOM     14  O   UNL     1     -38.156   5.914  11.396  1.00  0.00    -0.369 OA
ENDBRANCH  11  12
ENDBRANCH  10  11
ENDBRANCH   2  10
TORSDOF 4
ENDMDL
