MODEL 1
REMARK VINA RESULT:    -7.949      0.000      0.000
REMARK INTER + INTRA:          -8.053
REMARK INTER:                  -8.414
REMARK INTRA:                   0.361
REMARK UNBOUND:                 0.361
REMARK SMILES N#CC(C#N)=Cc1ccc(Cl)c(Cl)c1
REMARK SMILES IDX 11 1 10 2 12 3 13 4 14 5 7 6 8 7 9 8 6 9 3 10 2 11 4 12 1 13
REMARK SMILES IDX 5 14
REMARK H PARENT
ROOT
ATOM      1 Cl   UNL     1     -31.461   6.738   7.669  1.00  0.00    -0.083 Cl
ATOM      2  C   UNL     1     -30.791   8.280   7.280  1.00  0.00    +0.059 A 
ATOM      3  C   UNL     1     -29.435   8.577   7.456  1.00  0.00    +0.060 A 
ATOM      4 Cl   UNL     1     -28.308   7.426   8.080  1.00  0.00    -0.083 Cl
ATOM      5  C   UNL     1     -28.949   9.848   7.125  1.00  0.00    +0.030 A 
ATOM      6  C   UNL     1     -29.808  10.827   6.610  1.00  0.00    -0.022 A 
ATOM      7  C   UNL     1     -31.166  10.528   6.448  1.00  0.00    +0.010 A 
ATOM      8  C   UNL     1     -31.652   9.259   6.777  1.00  0.00    +0.023 A 
ENDROOT
BRANCH   6   9
ATOM      9  C   UNL     1     -29.269  12.155   6.289  1.00  0.00    +0.039 C 
ATOM     10  C   UNL     1     -28.136  12.408   5.602  1.00  0.00    +0.130 C 
ATOM     11  C   UNL     1     -27.747  13.761   5.384  1.00  0.00    +0.111 C 
ATOM     12  C   UNL     1     -27.296  11.377   5.097  1.00  0.00    +0.111 C 
ATOM     13  N   UNL     1     -27.454  14.872   5.218  1.00  0.00    -0.192 NA
ATOM     14  N   UNL     1     -26.624  10.528   4.677  1.00  0.00    -0.192 NA
ENDBRANCH   6   9
TORSDOF 1
ENDMDL
MODEL 2
REMARK VINA RESULT:    -7.693      3.696      5.690
REMARK INTER + INTRA:          -7.782
REMARK INTER:                  -7.639
REMARK INTRA:                  -0.143
REMARK UNBOUND:                 0.361
REMARK SMILES N#CC(C#N)=Cc1ccc(Cl)c(Cl)c1
REMARK SMILES IDX 11 1 10 2 12 3 13 4 14 5 7 6 8 7 9 8 6 9 3 10 2 11 4 12 1 13
REMARK SMILES IDX 5 14
REMARK H PARENT
ROOT
ATOM      1 Cl   UNL     1     -28.051  12.988   5.170  1.00  0.00    -0.083 Cl
ATOM      2  C   UNL     1     -28.785  11.605   5.899  1.00  0.00    +0.059 A 
ATOM      3  C   UNL     1     -28.125  10.378   6.016  1.00  0.00    +0.060 A 
ATOM      4 Cl   UNL     1     -26.514  10.134   5.441  1.00  0.00    -0.083 Cl
ATOM      5  C   UNL     1     -28.773   9.290   6.615  1.00  0.00    +0.030 A 
ATOM      6  C   UNL     1     -30.077   9.421   7.106  1.00  0.00    -0.022 A 
ATOM      7  C   UNL     1     -30.737  10.649   6.974  1.00  0.00    +0.010 A 
ATOM      8  C   UNL     1     -30.090  11.736   6.378  1.00  0.00    +0.023 A 
ENDROOT
BRANCH   6   9
ATOM      9  C   UNL     1     -30.733   8.257   7.714  1.00  0.00    +0.039 C 
ATOM     10  C   UNL     1     -31.639   7.454   7.118  1.00  0.00    +0.130 C 
ATOM     11  C   UNL     1     -32.190   6.366   7.854  1.00  0.00    +0.111 C 
ATOM     12  C   UNL     1     -32.084   7.656   5.782  1.00  0.00    +0.111 C 
ATOM     13  N   UNL     1     -32.623   5.486   8.475  1.00  0.00    -0.192 NA
ATOM     14  N   UNL     1     -32.431   7.822   4.686  1.00  0.00    -0.192 NA
ENDBRANCH   6   9
TORSDOF 1
ENDMDL
MODEL 3
REMARK VINA RESULT:    -7.598      1.205      2.089
REMARK INTER + INTRA:          -7.681
REMARK INTER:                  -7.839
REMARK INTRA:                   0.158
REMARK UNBOUND:                 0.361
REMARK SMILES N#CC(C#N)=Cc1ccc(Cl)c(Cl)c1
REMARK SMILES IDX 11 1 10 2 12 3 13 4 14 5 7 6 8 7 9 8 6 9 3 10 2 11 4 12 1 13
REMARK SMILES IDX 5 14
REMARK H PARENT
ROOT
ATOM      1 Cl   UNL     1     -30.490   5.706   8.483  1.00  0.00    -0.083 Cl
ATOM      2  C   UNL     1     -30.112   7.290   7.909  1.00  0.00    +0.059 A 
ATOM      3  C   UNL     1     -31.075   8.136   7.350  1.00  0.00    +0.060 A 
ATOM      4 Cl   UNL     1     -32.731   7.674   7.183  1.00  0.00    -0.083 Cl
ATOM      5  C   UNL     1     -30.708   9.411   6.899  1.00  0.00    +0.030 A 
ATOM      6  C   UNL     1     -29.383   9.850   7.009  1.00  0.00    -0.022 A 
ATOM      7  C   UNL     1     -28.422   8.993   7.557  1.00  0.00    +0.010 A 
ATOM      8  C   UNL     1     -28.787   7.721   8.009  1.00  0.00    +0.023 A 
ENDROOT
BRANCH   6   9
ATOM      9  C   UNL     1     -29.028  11.185   6.511  1.00  0.00    +0.039 C 
ATOM     10  C   UNL     1     -28.048  11.470   5.628  1.00  0.00    +0.130 C 
ATOM     11  C   UNL     1     -27.827  12.827   5.255  1.00  0.00    +0.111 C 
ATOM     12  C   UNL     1     -27.209  10.470   5.063  1.00  0.00    +0.111 C 
ATOM     13  N   UNL     1     -27.668  13.939   4.965  1.00  0.00    -0.192 NA
ATOM     14  N   UNL     1     -26.538   9.646   4.597  1.00  0.00    -0.192 NA
ENDBRANCH   6   9
TORSDOF 1
ENDMDL
MODEL 4
REMARK VINA RESULT:    -7.529      2.867      4.346
REMARK INTER + INTRA:          -7.608
REMARK INTER:                  -7.420
REMARK INTRA:                  -0.188
REMARK UNBOUND:                 0.361
REMARK SMILES N#CC(C#N)=Cc1ccc(Cl)c(Cl)c1
REMARK SMILES IDX 11 1 10 2 12 3 13 4 14 5 7 6 8 7 9 8 6 9 3 10 2 11 4 12 1 13
REMARK SMILES IDX 5 14
REMARK H PARENT
ROOT
ATOM      1 Cl   UNL     1     -34.703   4.905   7.572  1.00  0.00    -0.083 Cl
ATOM      2  C   UNL     1     -33.366   5.947   7.241  1.00  0.00    +0.059 A 
ATOM      3  C   UNL     1     -33.221   6.620   6.024  1.00  0.00    +0.060 A 
ATOM      4 Cl   UNL     1     -34.367   6.470   4.740  1.00  0.00    -0.083 Cl
ATOM      5  C   UNL     1     -32.113   7.451   5.811  1.00  0.00    +0.030 A 
ATOM      6  C   UNL     1     -31.150   7.620   6.813  1.00  0.00    -0.022 A 
ATOM      7  C   UNL     1     -31.293   6.933   8.024  1.00  0.00    +0.010 A 
ATOM      8  C   UNL     1     -32.400   6.105   8.237  1.00  0.00    +0.023 A 
ENDROOT
BRANCH   6   9
ATOM      9  C   UNL     1     -29.991   8.485   6.552  1.00  0.00    +0.039 C 
ATOM     10  C   UNL     1     -29.902   9.801   6.835  1.00  0.00    +0.130 C 
ATOM     11  C   UNL     1     -28.705  10.500   6.507  1.00  0.00    +0.111 C 
ATOM     12  C   UNL     1     -30.965  10.532   7.435  1.00  0.00    +0.111 C 
ATOM     13  N   UNL     1     -27.718  11.045   6.232  1.00  0.00    -0.192 NA
ATOM     14  N   UNL     1     -31.833  11.117   7.938  1.00  0.00    -0.192 NA
ENDBRANCH   6   9
TORSDOF 1
ENDMDL
MODEL 5
REMARK VINA RESULT:    -7.092      6.512      8.153
REMARK INTER + INTRA:          -7.145
REMARK INTER:                  -6.962
REMARK INTRA:                  -0.183
REMARK UNBOUND:                 0.361
REMARK SMILES N#CC(C#N)=Cc1ccc(Cl)c(Cl)c1
REMARK SMILES IDX 11 1 10 2 12 3 13 4 14 5 7 6 8 7 9 8 6 9 3 10 2 11 4 12 1 13
REMARK SMILES IDX 5 14
REMARK H PARENT
ROOT
ATOM      1 Cl   UNL     1     -27.212   0.912  12.825  1.00  0.00    -0.083 Cl
ATOM      2  C   UNL     1     -26.621   2.047  11.665  1.00  0.00    +0.059 A 
ATOM      3  C   UNL     1     -26.595   1.775  10.294  1.00  0.00    +0.060 A 
ATOM      4 Cl   UNL     1     -27.151   0.279   9.635  1.00  0.00    -0.083 Cl
ATOM      5  C   UNL     1     -26.101   2.735   9.400  1.00  0.00    +0.030 A 
ATOM      6  C   UNL     1     -25.639   3.971   9.868  1.00  0.00    -0.022 A 
ATOM      7  C   UNL     1     -25.656   4.232  11.243  1.00  0.00    +0.010 A 
ATOM      8  C   UNL     1     -26.150   3.275  12.136  1.00  0.00    +0.023 A 
ENDROOT
BRANCH   6   9
ATOM      9  C   UNL     1     -25.113   4.948   8.906  1.00  0.00    +0.039 C 
ATOM     10  C   UNL     1     -25.830   5.883   8.248  1.00  0.00    +0.130 C 
ATOM     11  C   UNL     1     -25.164   6.752   7.338  1.00  0.00    +0.111 C 
ATOM     12  C   UNL     1     -27.235   6.029   8.413  1.00  0.00    +0.111 C 
ATOM     13  N   UNL     1     -24.597   7.449   6.603  1.00  0.00    -0.192 NA
ATOM     14  N   UNL     1     -28.380   6.149   8.564  1.00  0.00    -0.192 NA
ENDBRANCH   6   9
TORSDOF 1
ENDMDL
MODEL 6
REMARK VINA RESULT:    -6.852      2.368      3.110
REMARK INTER + INTRA:          -6.891
REMARK INTER:                  -7.894
REMARK INTRA:                   1.003
REMARK UNBOUND:                 0.361
REMARK SMILES N#CC(C#N)=Cc1ccc(Cl)c(Cl)c1
REMARK SMILES IDX 11 1 10 2 12 3 13 4 14 5 7 6 8 7 9 8 6 9 3 10 2 11 4 12 1 13
REMARK SMILES IDX 5 14
REMARK H PARENT
ROOT
ATOM      1 Cl   UNL     1     -27.465   5.379   8.463  1.00  0.00    -0.083 Cl
ATOM      2  C   UNL     1     -27.417   6.944   7.736  1.00  0.00    +0.059 A 
ATOM      3  C   UNL     1     -26.282   7.436   7.083  1.00  0.00    +0.060 A 
ATOM      4 Cl   UNL     1     -24.824   6.520   6.945  1.00  0.00    -0.083 Cl
ATOM      5  C   UNL     1     -26.302   8.716   6.514  1.00  0.00    +0.030 A 
ATOM      6  C   UNL     1     -27.454   9.508   6.586  1.00  0.00    -0.022 A 
ATOM      7  C   UNL     1     -28.582   9.016   7.252  1.00  0.00    +0.010 A 
ATOM      8  C   UNL     1     -28.564   7.738   7.820  1.00  0.00    +0.023 A 
ENDROOT
BRANCH   6   9
ATOM      9  C   UNL     1     -27.436  10.852   5.994  1.00  0.00    +0.039 C 
ATOM     10  C   UNL     1     -28.447  11.745   6.017  1.00  0.00    +0.130 C 
ATOM     11  C   UNL     1     -28.269  13.008   5.383  1.00  0.00    +0.111 C 
ATOM     12  C   UNL     1     -29.698  11.473   6.637  1.00  0.00    +0.111 C 
ATOM     13  N   UNL     1     -28.098  14.031   4.861  1.00  0.00    -0.192 NA
ATOM     14  N   UNL     1     -30.711  11.247   7.157  1.00  0.00    -0.192 NA
ENDBRANCH   6   9
TORSDOF 1
ENDMDL
MODEL 7
REMARK VINA RESULT:    -6.698      9.441     10.895
REMARK INTER + INTRA:          -6.728
REMARK INTER:                  -6.540
REMARK INTRA:                  -0.188
REMARK UNBOUND:                 0.361
REMARK SMILES N#CC(C#N)=Cc1ccc(Cl)c(Cl)c1
REMARK SMILES IDX 11 1 10 2 12 3 13 4 14 5 7 6 8 7 9 8 6 9 3 10 2 11 4 12 1 13
REMARK SMILES IDX 5 14
REMARK H PARENT
ROOT
ATOM      1 Cl   UNL     1     -31.787   0.527  12.470  1.00  0.00    -0.083 Cl
ATOM      2  C   UNL     1     -30.086   0.682  12.217  1.00  0.00    +0.059 A 
ATOM      3  C   UNL     1     -29.451   0.202  11.067  1.00  0.00    +0.060 A 
ATOM      4 Cl   UNL     1     -30.311  -0.589   9.795  1.00  0.00    -0.083 Cl
ATOM      5  C   UNL     1     -28.066   0.354  10.918  1.00  0.00    +0.030 A 
ATOM      6  C   UNL     1     -27.310   0.990  11.910  1.00  0.00    -0.022 A 
ATOM      7  C   UNL     1     -27.950   1.456  13.064  1.00  0.00    +0.010 A 
ATOM      8  C   UNL     1     -29.332   1.306  13.213  1.00  0.00    +0.023 A 
ENDROOT
BRANCH   6   9
ATOM      9  C   UNL     1     -25.858   1.119  11.730  1.00  0.00    +0.039 C 
ATOM     10  C   UNL     1     -25.214   2.170  11.183  1.00  0.00    +0.130 C 
ATOM     11  C   UNL     1     -23.795   2.132  11.074  1.00  0.00    +0.111 C 
ATOM     12  C   UNL     1     -25.897   3.318  10.691  1.00  0.00    +0.111 C 
ATOM     13  N   UNL     1     -22.638   2.077  10.998  1.00  0.00    -0.192 NA
ATOM     14  N   UNL     1     -26.461   4.255  10.304  1.00  0.00    -0.192 NA
ENDBRANCH   6   9
TORSDOF 1
ENDMDL
MODEL 8
REMARK VINA RESULT:    -6.571      8.692     10.505
REMARK INTER + INTRA:          -6.594
REMARK INTER:                  -6.470
REMARK INTRA:                  -0.124
REMARK UNBOUND:                 0.361
REMARK SMILES N#CC(C#N)=Cc1ccc(Cl)c(Cl)c1
REMARK SMILES IDX 11 1 10 2 12 3 13 4 14 5 7 6 8 7 9 8 6 9 3 10 2 11 4 12 1 13
REMARK SMILES IDX 5 14
REMARK H PARENT
ROOT
ATOM      1 Cl   UNL     1     -30.644  -0.934  14.252  1.00  0.00    -0.083 Cl
ATOM      2  C   UNL     1     -29.782   0.179  13.252  1.00  0.00    +0.059 A 
ATOM      3  C   UNL     1     -30.211   0.522  11.966  1.00  0.00    +0.060 A 
ATOM      4 Cl   UNL     1     -31.644  -0.138  11.261  1.00  0.00    -0.083 Cl
ATOM      5  C   UNL     1     -29.468   1.429  11.199  1.00  0.00    +0.030 A 
ATOM      6  C   UNL     1     -28.300   2.003  11.713  1.00  0.00    -0.022 A 
ATOM      7  C   UNL     1     -27.868   1.646  12.996  1.00  0.00    +0.010 A 
ATOM      8  C   UNL     1     -28.610   0.742  13.762  1.00  0.00    +0.023 A 
ENDROOT
BRANCH   6   9
ATOM      9  C   UNL     1     -27.535   2.938  10.877  1.00  0.00    +0.039 C 
ATOM     10  C   UNL     1     -26.704   2.605   9.867  1.00  0.00    +0.130 C 
ATOM     11  C   UNL     1     -26.027   3.639   9.159  1.00  0.00    +0.111 C 
ATOM     12  C   UNL     1     -26.459   1.256   9.487  1.00  0.00    +0.111 C 
ATOM     13  N   UNL     1     -25.489   4.500   8.596  1.00  0.00    -0.192 NA
ATOM     14  N   UNL     1     -26.276   0.153   9.175  1.00  0.00    -0.192 NA
ENDBRANCH   6   9
TORSDOF 1
ENDMDL
MODEL 9
REMARK VINA RESULT:    -6.491     10.119     10.803
REMARK INTER + INTRA:          -6.510
REMARK INTER:                  -6.483
REMARK INTRA:                  -0.026
REMARK UNBOUND:                 0.361
REMARK SMILES N#CC(C#N)=Cc1ccc(Cl)c(Cl)c1
REMARK SMILES IDX 11 1 10 2 12 3 13 4 14 5 7 6 8 7 9 8 6 9 3 10 2 11 4 12 1 13
REMARK SMILES IDX 5 14
REMARK H PARENT
ROOT
ATOM      1 Cl   UNL     1     -32.423   0.627  11.850  1.00  0.00    -0.083 Cl
ATOM      2  C   UNL     1     -30.758   1.081  11.839  1.00  0.00    +0.059 A 
ATOM      3  C   UNL     1     -29.930   0.928  12.956  1.00  0.00    +0.060 A 
ATOM      4 Cl   UNL     1     -30.499   0.271  14.448  1.00  0.00    -0.083 Cl
ATOM      5  C   UNL     1     -28.586   1.317  12.889  1.00  0.00    +0.030 A 
ATOM      6  C   UNL     1     -28.059   1.853  11.708  1.00  0.00    -0.022 A 
ATOM      7  C   UNL     1     -28.896   2.016  10.597  1.00  0.00    +0.010 A 
ATOM      8  C   UNL     1     -30.237   1.627  10.663  1.00  0.00    +0.023 A 
ENDROOT
BRANCH   6   9
ATOM      9  C   UNL     1     -26.650   2.267  11.675  1.00  0.00    +0.039 C 
ATOM     10  C   UNL     1     -25.683   1.736  10.899  1.00  0.00    +0.130 C 
ATOM     11  C   UNL     1     -24.357   2.248  10.997  1.00  0.00    +0.111 C 
ATOM     12  C   UNL     1     -25.926   0.667   9.991  1.00  0.00    +0.111 C 
ATOM     13  N   UNL     1     -23.287   2.685  11.094  1.00  0.00    -0.192 NA
ATOM     14  N   UNL     1     -26.137  -0.195   9.244  1.00  0.00    -0.192 NA
ENDBRANCH   6   9
TORSDOF 1
ENDMDL
