MODEL 1
REMARK VINA RESULT:    -6.757      0.000      0.000
REMARK INTER + INTRA:         -13.938
REMARK INTER:                 -12.288
REMARK INTRA:                  -1.650
REMARK UNBOUND:                -1.650
REMARK SMILES CC(=O)OC[C@H](OC(C)=O)[C@H](OC(C)=O)[C@@H](COC(C)=O)OC(C)=O
REMARK SMILES IDX 11 1 16 2 17 3 18 4 19 5 21 6 20 7 22 8 23 9 25 10 24 11
REMARK SMILES IDX 12 12 13 13 15 14 14 15 6 16 5 17 4 18 2 19 3 20 1 21 7 22
REMARK SMILES IDX 8 23 10 24 9 25
REMARK H PARENT
ROOT
ATOM      1  C   UNL     1     -30.137   8.661   7.583  1.00  0.00    +0.265 C 
ENDROOT
BRANCH   1   2
ATOM      2  C   UNL     1     -28.644   8.657   7.184  1.00  0.00    +0.259 C 
BRANCH   2   3
ATOM      3  C   UNL     1     -27.910   7.402   7.676  1.00  0.00    +0.282 C 
BRANCH   3   4
ATOM      4  O   UNL     1     -26.522   7.742   7.864  1.00  0.00    -0.462 OA
BRANCH   4   5
ATOM      5  C   UNL     1     -25.653   6.937   7.195  1.00  0.00    +0.302 C 
ATOM      6  O   UNL     1     -25.755   5.725   7.077  1.00  0.00    -0.253 OA
ATOM      7  C   UNL     1     -24.536   7.755   6.622  1.00  0.00    +0.139 C 
ENDBRANCH   4   5
ENDBRANCH   3   4
ENDBRANCH   2   3
BRANCH   2   8
ATOM      8  O   UNL     1     -28.488   8.713   5.746  1.00  0.00    -0.455 OA
BRANCH   8   9
ATOM      9  C   UNL     1     -27.499   9.510   5.262  1.00  0.00    +0.303 C 
ATOM     10  O   UNL     1     -26.724   9.225   4.362  1.00  0.00    -0.253 OA
ATOM     11  C   UNL     1     -27.482  10.807   6.013  1.00  0.00    +0.139 C 
ENDBRANCH   8   9
ENDBRANCH   2   8
ENDBRANCH   1   2
BRANCH   1  12
ATOM     12  O   UNL     1     -30.775   9.772   6.899  1.00  0.00    -0.454 OA
BRANCH  12  13
ATOM     13  C   UNL     1     -31.366  10.720   7.676  1.00  0.00    +0.303 C 
ATOM     14  O   UNL     1     -32.392  10.571   8.323  1.00  0.00    -0.253 OA
ATOM     15  C   UNL     1     -30.576  11.991   7.616  1.00  0.00    +0.139 C 
ENDBRANCH  12  13
ENDBRANCH   1  12
BRANCH   1  16
ATOM     16  C   UNL     1     -30.905   7.350   7.270  1.00  0.00    +0.259 C 
BRANCH  16  17
ATOM     17  C   UNL     1     -31.980   7.502   6.181  1.00  0.00    +0.282 C 
BRANCH  17  18
ATOM     18  O   UNL     1     -33.301   7.449   6.761  1.00  0.00    -0.462 OA
BRANCH  18  19
ATOM     19  C   UNL     1     -34.077   6.414   6.336  1.00  0.00    +0.302 C 
ATOM     20  O   UNL     1     -34.748   5.695   7.063  1.00  0.00    -0.253 OA
ATOM     21  C   UNL     1     -33.998   6.285   4.847  1.00  0.00    +0.139 C 
ENDBRANCH  18  19
ENDBRANCH  17  18
ENDBRANCH  16  17
BRANCH  16  22
ATOM     22  O   UNL     1     -31.625   6.919   8.462  1.00  0.00    -0.455 OA
BRANCH  22  23
ATOM     23  C   UNL     1     -31.280   5.697   8.948  1.00  0.00    +0.303 C 
ATOM     24  O   UNL     1     -30.144   5.242   8.950  1.00  0.00    -0.253 OA
ATOM     25  C   UNL     1     -32.487   4.988   9.478  1.00  0.00    +0.139 C 
ENDBRANCH  22  23
ENDBRANCH  16  22
ENDBRANCH   1  16
TORSDOF 14
ENDMDL
MODEL 2
REMARK VINA RESULT:    -6.478      6.124      8.954
REMARK INTER + INTRA:         -13.431
REMARK INTER:                 -11.713
REMARK INTRA:                  -1.717
REMARK UNBOUND:                -1.650
REMARK SMILES CC(=O)OC[C@H](OC(C)=O)[C@H](OC(C)=O)[C@@H](COC(C)=O)OC(C)=O
REMARK SMILES IDX 11 1 16 2 17 3 18 4 19 5 21 6 20 7 22 8 23 9 25 10 24 11
REMARK SMILES IDX 12 12 13 13 15 14 14 15 6 16 5 17 4 18 2 19 3 20 1 21 7 22
REMARK SMILES IDX 8 23 10 24 9 25
REMARK H PARENT
ROOT
ATOM      1  C   UNL     1     -27.234   1.676  10.644  1.00  0.00    +0.265 C 
ENDROOT
BRANCH   1   2
ATOM      2  C   UNL     1     -26.345   2.938  10.590  1.00  0.00    +0.259 C 
BRANCH   2   3
ATOM      3  C   UNL     1     -25.009   2.744  11.321  1.00  0.00    +0.282 C 
BRANCH   3   4
ATOM      4  O   UNL     1     -23.981   2.550  10.329  1.00  0.00    -0.462 OA
BRANCH   4   5
ATOM      5  C   UNL     1     -23.184   1.471  10.551  1.00  0.00    +0.302 C 
ATOM      6  O   UNL     1     -23.152   0.812  11.579  1.00  0.00    -0.253 OA
ATOM      7  C   UNL     1     -22.335   1.204   9.346  1.00  0.00    +0.139 C 
ENDBRANCH   4   5
ENDBRANCH   3   4
ENDBRANCH   2   3
BRANCH   2   8
ATOM      8  O   UNL     1     -26.041   3.305   9.224  1.00  0.00    -0.455 OA
BRANCH   8   9
ATOM      9  C   UNL     1     -26.538   4.489   8.776  1.00  0.00    +0.303 C 
ATOM     10  O   UNL     1     -27.718   4.802   8.734  1.00  0.00    -0.253 OA
ATOM     11  C   UNL     1     -25.413   5.368   8.319  1.00  0.00    +0.139 C 
ENDBRANCH   8   9
ENDBRANCH   2   8
ENDBRANCH   1   2
BRANCH   1  12
ATOM     12  O   UNL     1     -26.404   0.567  11.081  1.00  0.00    -0.454 OA
BRANCH  12  13
ATOM     13  C   UNL     1     -26.335  -0.515  10.259  1.00  0.00    +0.303 C 
ATOM     14  O   UNL     1     -25.962  -0.503   9.096  1.00  0.00    -0.253 OA
ATOM     15  C   UNL     1     -26.798  -1.738  10.989  1.00  0.00    +0.139 C 
ENDBRANCH  12  13
ENDBRANCH   1  12
BRANCH   1  16
ATOM     16  C   UNL     1     -28.478   1.786  11.564  1.00  0.00    +0.259 C 
BRANCH  16  17
ATOM     17  C   UNL     1     -28.144   1.799  13.065  1.00  0.00    +0.282 C 
BRANCH  17  18
ATOM     18  O   UNL     1     -28.347   0.491  13.642  1.00  0.00    -0.462 OA
BRANCH  18  19
ATOM     19  C   UNL     1     -28.893   0.488  14.889  1.00  0.00    +0.302 C 
ATOM     20  O   UNL     1     -28.276   0.290  15.925  1.00  0.00    -0.253 OA
ATOM     21  C   UNL     1     -30.361   0.772  14.811  1.00  0.00    +0.139 C 
ENDBRANCH  18  19
ENDBRANCH  17  18
ENDBRANCH  16  17
BRANCH  16  22
ATOM     22  O   UNL     1     -29.325   0.616  11.370  1.00  0.00    -0.455 OA
BRANCH  22  23
ATOM     23  C   UNL     1     -30.241   0.712  10.370  1.00  0.00    +0.303 C 
ATOM     24  O   UNL     1     -30.786   1.750  10.020  1.00  0.00    -0.253 OA
ATOM     25  C   UNL     1     -30.488  -0.632   9.759  1.00  0.00    +0.139 C 
ENDBRANCH  22  23
ENDBRANCH  16  22
ENDBRANCH   1  16
TORSDOF 14
ENDMDL
MODEL 3
REMARK VINA RESULT:    -6.292      6.199      9.299
REMARK INTER + INTRA:         -13.092
REMARK INTER:                 -11.440
REMARK INTRA:                  -1.652
REMARK UNBOUND:                -1.650
REMARK SMILES CC(=O)OC[C@H](OC(C)=O)[C@H](OC(C)=O)[C@@H](COC(C)=O)OC(C)=O
REMARK SMILES IDX 11 1 16 2 17 3 18 4 19 5 21 6 20 7 22 8 23 9 25 10 24 11
REMARK SMILES IDX 12 12 13 13 15 14 14 15 6 16 5 17 4 18 2 19 3 20 1 21 7 22
REMARK SMILES IDX 8 23 10 24 9 25
REMARK H PARENT
ROOT
ATOM      1  C   UNL     1     -27.565   0.923  10.846  1.00  0.00    +0.265 C 
ENDROOT
BRANCH   1   2
ATOM      2  C   UNL     1     -26.683   2.017  10.202  1.00  0.00    +0.259 C 
BRANCH   2   3
ATOM      3  C   UNL     1     -27.400   3.372  10.118  1.00  0.00    +0.282 C 
BRANCH   3   4
ATOM      4  O   UNL     1     -26.397   4.407  10.097  1.00  0.00    -0.462 OA
BRANCH   4   5
ATOM      5  C   UNL     1     -26.130   4.904   8.860  1.00  0.00    +0.302 C 
ATOM      6  O   UNL     1     -25.099   4.724   8.230  1.00  0.00    -0.253 OA
ATOM      7  C   UNL     1     -27.290   5.718   8.374  1.00  0.00    +0.139 C 
ENDBRANCH   4   5
ENDBRANCH   3   4
ENDBRANCH   2   3
BRANCH   2   8
ATOM      8  O   UNL     1     -25.466   2.218  10.958  1.00  0.00    -0.455 OA
BRANCH   8   9
ATOM      9  C   UNL     1     -24.292   1.971  10.318  1.00  0.00    +0.303 C 
ATOM     10  O   UNL     1     -24.166   1.391   9.250  1.00  0.00    -0.253 OA
ATOM     11  C   UNL     1     -23.152   2.507  11.129  1.00  0.00    +0.139 C 
ENDBRANCH   8   9
ENDBRANCH   2   8
ENDBRANCH   1   2
BRANCH   1  12
ATOM     12  O   UNL     1     -26.694   0.044  11.608  1.00  0.00    -0.454 OA
BRANCH  12  13
ATOM     13  C   UNL     1     -26.770  -1.287  11.338  1.00  0.00    +0.303 C 
ATOM     14  O   UNL     1     -27.419  -2.106  11.971  1.00  0.00    -0.253 OA
ATOM     15  C   UNL     1     -25.924  -1.612  10.145  1.00  0.00    +0.139 C 
ENDBRANCH  12  13
ENDBRANCH   1  12
BRANCH   1  16
ATOM     16  C   UNL     1     -28.701   1.448  11.762  1.00  0.00    +0.259 C 
BRANCH  16  17
ATOM     17  C   UNL     1     -28.363   1.406  13.261  1.00  0.00    +0.282 C 
BRANCH  17  18
ATOM     18  O   UNL     1     -29.098   0.351  13.918  1.00  0.00    -0.462 OA
BRANCH  18  19
ATOM     19  C   UNL     1     -29.259   0.509  15.261  1.00  0.00    +0.302 C 
ATOM     20  O   UNL     1     -29.123   1.562  15.866  1.00  0.00    -0.253 OA
ATOM     21  C   UNL     1     -29.636  -0.795  15.894  1.00  0.00    +0.139 C 
ENDBRANCH  18  19
ENDBRANCH  17  18
ENDBRANCH  16  17
BRANCH  16  22
ATOM     22  O   UNL     1     -29.874   0.597  11.609  1.00  0.00    -0.455 OA
BRANCH  22  23
ATOM     23  C   UNL     1     -30.532   0.709  10.425  1.00  0.00    +0.303 C 
ATOM     24  O   UNL     1     -30.918   1.763   9.938  1.00  0.00    -0.253 OA
ATOM     25  C   UNL     1     -30.718  -0.639   9.803  1.00  0.00    +0.139 C 
ENDBRANCH  22  23
ENDBRANCH  16  22
ENDBRANCH   1  16
TORSDOF 14
ENDMDL
MODEL 4
REMARK VINA RESULT:    -6.278      6.965      9.837
REMARK INTER + INTRA:         -13.067
REMARK INTER:                 -11.167
REMARK INTRA:                  -1.901
REMARK UNBOUND:                -1.650
REMARK SMILES CC(=O)OC[C@H](OC(C)=O)[C@H](OC(C)=O)[C@@H](COC(C)=O)OC(C)=O
REMARK SMILES IDX 11 1 16 2 17 3 18 4 19 5 21 6 20 7 22 8 23 9 25 10 24 11
REMARK SMILES IDX 12 12 13 13 15 14 14 15 6 16 5 17 4 18 2 19 3 20 1 21 7 22
REMARK SMILES IDX 8 23 10 24 9 25
REMARK H PARENT
ROOT
ATOM      1  C   UNL     1     -27.585   0.371  12.601  1.00  0.00    +0.265 C 
ENDROOT
BRANCH   1   2
ATOM      2  C   UNL     1     -26.912   1.296  11.562  1.00  0.00    +0.259 C 
BRANCH   2   3
ATOM      3  C   UNL     1     -26.535   2.662  12.152  1.00  0.00    +0.282 C 
BRANCH   3   4
ATOM      4  O   UNL     1     -26.844   3.673  11.172  1.00  0.00    -0.462 OA
BRANCH   4   5
ATOM      5  C   UNL     1     -25.772   4.104  10.455  1.00  0.00    +0.302 C 
ATOM      6  O   UNL     1     -24.611   4.094  10.837  1.00  0.00    -0.253 OA
ATOM      7  C   UNL     1     -26.219   4.603   9.115  1.00  0.00    +0.139 C 
ENDBRANCH   4   5
ENDBRANCH   3   4
ENDBRANCH   2   3
BRANCH   2   8
ATOM      8  O   UNL     1     -25.701   0.701  11.040  1.00  0.00    -0.455 OA
BRANCH   8   9
ATOM      9  C   UNL     1     -25.707   0.334   9.731  1.00  0.00    +0.303 C 
ATOM     10  O   UNL     1     -25.710   1.092   8.773  1.00  0.00    -0.253 OA
ATOM     11  C   UNL     1     -25.726  -1.161   9.625  1.00  0.00    +0.139 C 
ENDBRANCH   8   9
ENDBRANCH   2   8
ENDBRANCH   1   2
BRANCH   1  12
ATOM     12  O   UNL     1     -28.093   1.207  13.675  1.00  0.00    -0.454 OA
BRANCH  12  13
ATOM     13  C   UNL     1     -28.443   0.582  14.832  1.00  0.00    +0.303 C 
ATOM     14  O   UNL     1     -27.738  -0.191  15.464  1.00  0.00    -0.253 OA
ATOM     15  C   UNL     1     -29.836   0.972  15.219  1.00  0.00    +0.139 C 
ENDBRANCH  12  13
ENDBRANCH   1  12
BRANCH   1  16
ATOM     16  C   UNL     1     -28.731  -0.516  12.048  1.00  0.00    +0.259 C 
BRANCH  16  17
ATOM     17  C   UNL     1     -28.434  -2.024  12.099  1.00  0.00    +0.282 C 
BRANCH  17  18
ATOM     18  O   UNL     1     -28.885  -2.587  13.350  1.00  0.00    -0.462 OA
BRANCH  18  19
ATOM     19  C   UNL     1     -30.222  -2.830  13.425  1.00  0.00    +0.302 C 
ATOM     20  O   UNL     1     -30.926  -3.181  12.490  1.00  0.00    -0.253 OA
ATOM     21  C   UNL     1     -30.710  -2.612  14.824  1.00  0.00    +0.139 C 
ENDBRANCH  18  19
ENDBRANCH  17  18
ENDBRANCH  16  17
BRANCH  16  22
ATOM     22  O   UNL     1     -28.935  -0.213  10.637  1.00  0.00    -0.455 OA
BRANCH  22  23
ATOM     23  C   UNL     1     -30.174   0.240  10.306  1.00  0.00    +0.303 C 
ATOM     24  O   UNL     1     -30.613   1.345  10.593  1.00  0.00    -0.253 OA
ATOM     25  C   UNL     1     -30.924  -0.806   9.542  1.00  0.00    +0.139 C 
ENDBRANCH  22  23
ENDBRANCH  16  22
ENDBRANCH   1  16
TORSDOF 14
ENDMDL
MODEL 5
REMARK VINA RESULT:    -6.210      6.229      8.697
REMARK INTER + INTRA:         -12.943
REMARK INTER:                 -11.346
REMARK INTRA:                  -1.597
REMARK UNBOUND:                -1.650
REMARK SMILES CC(=O)OC[C@H](OC(C)=O)[C@H](OC(C)=O)[C@@H](COC(C)=O)OC(C)=O
REMARK SMILES IDX 11 1 16 2 17 3 18 4 19 5 21 6 20 7 22 8 23 9 25 10 24 11
REMARK SMILES IDX 12 12 13 13 15 14 14 15 6 16 5 17 4 18 2 19 3 20 1 21 7 22
REMARK SMILES IDX 8 23 10 24 9 25
REMARK H PARENT
ROOT
ATOM      1  C   UNL     1     -28.508   0.709  12.072  1.00  0.00    +0.265 C 
ENDROOT
BRANCH   1   2
ATOM      2  C   UNL     1     -27.456   1.474  11.238  1.00  0.00    +0.259 C 
BRANCH   2   3
ATOM      3  C   UNL     1     -26.973   2.753  11.936  1.00  0.00    +0.282 C 
BRANCH   3   4
ATOM      4  O   UNL     1     -26.888   3.796  10.946  1.00  0.00    -0.462 OA
BRANCH   4   5
ATOM      5  C   UNL     1     -25.622   4.071  10.529  1.00  0.00    +0.302 C 
ATOM      6  O   UNL     1     -24.598   3.756  11.116  1.00  0.00    -0.253 OA
ATOM      7  C   UNL     1     -25.662   4.827   9.236  1.00  0.00    +0.139 C 
ENDBRANCH   4   5
ENDBRANCH   3   4
ENDBRANCH   2   3
BRANCH   2   8
ATOM      8  O   UNL     1     -26.292   0.652  10.987  1.00  0.00    -0.455 OA
BRANCH   8   9
ATOM      9  C   UNL     1     -26.045   0.309   9.695  1.00  0.00    +0.303 C 
ATOM     10  O   UNL     1     -25.854   1.084   8.770  1.00  0.00    -0.253 OA
ATOM     11  C   UNL     1     -26.056  -1.184   9.558  1.00  0.00    +0.139 C 
ENDBRANCH   8   9
ENDBRANCH   2   8
ENDBRANCH   1   2
BRANCH   1  12
ATOM     12  O   UNL     1     -28.873   1.547  13.201  1.00  0.00    -0.454 OA
BRANCH  12  13
ATOM     13  C   UNL     1     -28.712   1.015  14.443  1.00  0.00    +0.303 C 
ATOM     14  O   UNL     1     -29.141   1.493  15.483  1.00  0.00    -0.253 OA
ATOM     15  C   UNL     1     -27.913  -0.249  14.356  1.00  0.00    +0.139 C 
ENDBRANCH  12  13
ENDBRANCH   1  12
BRANCH   1  16
ATOM     16  C   UNL     1     -29.788   0.296  11.299  1.00  0.00    +0.259 C 
BRANCH  16  17
ATOM     17  C   UNL     1     -30.506   1.469  10.610  1.00  0.00    +0.282 C 
BRANCH  17  18
ATOM     18  O   UNL     1     -31.784   1.719  11.236  1.00  0.00    -0.462 OA
BRANCH  18  19
ATOM     19  C   UNL     1     -32.845   1.763  10.384  1.00  0.00    +0.302 C 
ATOM     20  O   UNL     1     -32.773   1.983   9.184  1.00  0.00    -0.253 OA
ATOM     21  C   UNL     1     -34.117   1.494  11.128  1.00  0.00    +0.139 C 
ENDBRANCH  18  19
ENDBRANCH  17  18
ENDBRANCH  16  17
BRANCH  16  22
ATOM     22  O   UNL     1     -30.760  -0.252  12.235  1.00  0.00    -0.455 OA
BRANCH  22  23
ATOM     23  C   UNL     1     -30.949  -1.597  12.167  1.00  0.00    +0.303 C 
ATOM     24  O   UNL     1     -30.249  -2.430  12.727  1.00  0.00    -0.253 OA
ATOM     25  C   UNL     1     -32.134  -1.914  11.309  1.00  0.00    +0.139 C 
ENDBRANCH  22  23
ENDBRANCH  16  22
ENDBRANCH   1  16
TORSDOF 14
ENDMDL
MODEL 6
REMARK VINA RESULT:    -6.183      4.672      7.794
REMARK INTER + INTRA:         -12.894
REMARK INTER:                 -11.347
REMARK INTRA:                  -1.547
REMARK UNBOUND:                -1.650
REMARK SMILES CC(=O)OC[C@H](OC(C)=O)[C@H](OC(C)=O)[C@@H](COC(C)=O)OC(C)=O
REMARK SMILES IDX 11 1 16 2 17 3 18 4 19 5 21 6 20 7 22 8 23 9 25 10 24 11
REMARK SMILES IDX 12 12 13 13 15 14 14 15 6 16 5 17 4 18 2 19 3 20 1 21 7 22
REMARK SMILES IDX 8 23 10 24 9 25
REMARK H PARENT
ROOT
ATOM      1  C   UNL     1     -35.484   4.262   9.712  1.00  0.00    +0.265 C 
ENDROOT
BRANCH   1   2
ATOM      2  C   UNL     1     -34.344   4.255   8.668  1.00  0.00    +0.259 C 
BRANCH   2   3
ATOM      3  C   UNL     1     -34.867   4.372   7.230  1.00  0.00    +0.282 C 
BRANCH   3   4
ATOM      4  O   UNL     1     -34.468   5.657   6.713  1.00  0.00    -0.462 OA
BRANCH   4   5
ATOM      5  C   UNL     1     -33.867   5.608   5.493  1.00  0.00    +0.302 C 
ATOM      6  O   UNL     1     -34.042   4.741   4.650  1.00  0.00    -0.253 OA
ATOM      7  C   UNL     1     -32.946   6.778   5.329  1.00  0.00    +0.139 C 
ENDBRANCH   4   5
ENDBRANCH   3   4
ENDBRANCH   2   3
BRANCH   2   8
ATOM      8  O   UNL     1     -33.430   5.355   8.887  1.00  0.00    -0.455 OA
BRANCH   8   9
ATOM      9  C   UNL     1     -32.112   5.047   9.019  1.00  0.00    +0.303 C 
ATOM     10  O   UNL     1     -31.660   3.970   9.375  1.00  0.00    -0.253 OA
ATOM     11  C   UNL     1     -31.277   6.244   8.676  1.00  0.00    +0.139 C 
ENDBRANCH   8   9
ENDBRANCH   2   8
ENDBRANCH   1   2
BRANCH   1  12
ATOM     12  O   UNL     1     -36.684   4.746   9.053  1.00  0.00    -0.454 OA
BRANCH  12  13
ATOM     13  C   UNL     1     -37.263   5.864   9.568  1.00  0.00    +0.303 C 
ATOM     14  O   UNL     1     -38.110   6.548   9.012  1.00  0.00    -0.253 OA
ATOM     15  C   UNL     1     -36.700   6.149  10.926  1.00  0.00    +0.139 C 
ENDBRANCH  12  13
ENDBRANCH   1  12
BRANCH   1  16
ATOM     16  C   UNL     1     -35.775   2.891  10.376  1.00  0.00    +0.259 C 
BRANCH  16  17
ATOM     17  C   UNL     1     -34.805   1.774   9.956  1.00  0.00    +0.282 C 
BRANCH  17  18
ATOM     18  O   UNL     1     -33.965   1.387  11.065  1.00  0.00    -0.462 OA
BRANCH  18  19
ATOM     19  C   UNL     1     -32.728   0.933  10.722  1.00  0.00    +0.302 C 
ATOM     20  O   UNL     1     -32.383   0.621   9.591  1.00  0.00    -0.253 OA
ATOM     21  C   UNL     1     -31.845   0.875  11.929  1.00  0.00    +0.139 C 
ENDBRANCH  18  19
ENDBRANCH  17  18
ENDBRANCH  16  17
BRANCH  16  22
ATOM     22  O   UNL     1     -37.094   2.428   9.965  1.00  0.00    -0.455 OA
BRANCH  22  23
ATOM     23  C   UNL     1     -38.003   2.275  10.965  1.00  0.00    +0.303 C 
ATOM     24  O   UNL     1     -38.577   3.195  11.532  1.00  0.00    -0.253 OA
ATOM     25  C   UNL     1     -38.199   0.824  11.274  1.00  0.00    +0.139 C 
ENDBRANCH  22  23
ENDBRANCH  16  22
ENDBRANCH   1  16
TORSDOF 14
ENDMDL
MODEL 7
REMARK VINA RESULT:    -6.116      1.884      5.099
REMARK INTER + INTRA:         -12.771
REMARK INTER:                 -11.710
REMARK INTRA:                  -1.061
REMARK UNBOUND:                -1.650
REMARK SMILES CC(=O)OC[C@H](OC(C)=O)[C@H](OC(C)=O)[C@@H](COC(C)=O)OC(C)=O
REMARK SMILES IDX 11 1 16 2 17 3 18 4 19 5 21 6 20 7 22 8 23 9 25 10 24 11
REMARK SMILES IDX 12 12 13 13 15 14 14 15 6 16 5 17 4 18 2 19 3 20 1 21 7 22
REMARK SMILES IDX 8 23 10 24 9 25
REMARK H PARENT
ROOT
ATOM      1  C   UNL     1     -29.171   8.473   6.790  1.00  0.00    +0.265 C 
ENDROOT
BRANCH   1   2
ATOM      2  C   UNL     1     -27.874   8.140   7.560  1.00  0.00    +0.259 C 
BRANCH   2   3
ATOM      3  C   UNL     1     -28.029   6.909   8.464  1.00  0.00    +0.282 C 
BRANCH   3   4
ATOM      4  O   UNL     1     -27.217   5.850   7.919  1.00  0.00    -0.462 OA
BRANCH   4   5
ATOM      5  C   UNL     1     -26.677   5.021   8.852  1.00  0.00    +0.302 C 
ATOM      6  O   UNL     1     -27.304   4.252   9.566  1.00  0.00    -0.253 OA
ATOM      7  C   UNL     1     -25.189   5.187   8.886  1.00  0.00    +0.139 C 
ENDBRANCH   4   5
ENDBRANCH   3   4
ENDBRANCH   2   3
BRANCH   2   8
ATOM      8  O   UNL     1     -26.781   7.874   6.650  1.00  0.00    -0.455 OA
BRANCH   8   9
ATOM      9  C   UNL     1     -25.598   8.494   6.906  1.00  0.00    +0.303 C 
ATOM     10  O   UNL     1     -25.451   9.520   7.552  1.00  0.00    -0.253 OA
ATOM     11  C   UNL     1     -24.480   7.735   6.258  1.00  0.00    +0.139 C 
ENDBRANCH   8   9
ENDBRANCH   2   8
ENDBRANCH   1   2
BRANCH   1  12
ATOM     12  O   UNL     1     -30.271   7.809   7.468  1.00  0.00    -0.454 OA
BRANCH  12  13
ATOM     13  C   UNL     1     -31.360   7.493   6.717  1.00  0.00    +0.303 C 
ATOM     14  O   UNL     1     -31.470   7.671   5.513  1.00  0.00    -0.253 OA
ATOM     15  C   UNL     1     -32.424   6.898   7.588  1.00  0.00    +0.139 C 
ENDBRANCH  12  13
ENDBRANCH   1  12
BRANCH   1  16
ATOM     16  C   UNL     1     -29.485   9.986   6.653  1.00  0.00    +0.259 C 
BRANCH  16  17
ATOM     17  C   UNL     1     -28.236  10.874   6.531  1.00  0.00    +0.282 C 
BRANCH  17  18
ATOM     18  O   UNL     1     -27.607  10.690   5.244  1.00  0.00    -0.462 OA
BRANCH  18  19
ATOM     19  C   UNL     1     -26.883  11.753   4.798  1.00  0.00    +0.302 C 
ATOM     20  O   UNL     1     -25.823  11.677   4.193  1.00  0.00    -0.253 OA
ATOM     21  C   UNL     1     -27.575  13.034   5.147  1.00  0.00    +0.139 C 
ENDBRANCH  18  19
ENDBRANCH  17  18
ENDBRANCH  16  17
BRANCH  16  22
ATOM     22  O   UNL     1     -30.167  10.447   7.856  1.00  0.00    -0.455 OA
BRANCH  22  23
ATOM     23  C   UNL     1     -31.433  10.910   7.674  1.00  0.00    +0.303 C 
ATOM     24  O   UNL     1     -32.367  10.702   8.436  1.00  0.00    -0.253 OA
ATOM     25  C   UNL     1     -31.519  11.708   6.411  1.00  0.00    +0.139 C 
ENDBRANCH  22  23
ENDBRANCH  16  22
ENDBRANCH   1  16
TORSDOF 14
ENDMDL
MODEL 8
REMARK VINA RESULT:    -5.977      3.484      8.645
REMARK INTER + INTRA:         -12.519
REMARK INTER:                 -10.750
REMARK INTRA:                  -1.769
REMARK UNBOUND:                -1.650
REMARK SMILES CC(=O)OC[C@H](OC(C)=O)[C@H](OC(C)=O)[C@@H](COC(C)=O)OC(C)=O
REMARK SMILES IDX 11 1 16 2 17 3 18 4 19 5 21 6 20 7 22 8 23 9 25 10 24 11
REMARK SMILES IDX 12 12 13 13 15 14 14 15 6 16 5 17 4 18 2 19 3 20 1 21 7 22
REMARK SMILES IDX 8 23 10 24 9 25
REMARK H PARENT
ROOT
ATOM      1  C   UNL     1     -33.685   4.147   9.240  1.00  0.00    +0.265 C 
ENDROOT
BRANCH   1   2
ATOM      2  C   UNL     1     -35.230   4.139   9.238  1.00  0.00    +0.259 C 
BRANCH   2   3
ATOM      3  C   UNL     1     -35.808   2.720   9.335  1.00  0.00    +0.282 C 
BRANCH   3   4
ATOM      4  O   UNL     1     -36.166   2.477  10.709  1.00  0.00    -0.462 OA
BRANCH   4   5
ATOM      5  C   UNL     1     -37.336   1.802  10.873  1.00  0.00    +0.302 C 
ATOM      6  O   UNL     1     -37.451   0.587  10.931  1.00  0.00    -0.253 OA
ATOM      7  C   UNL     1     -38.476   2.768  10.967  1.00  0.00    +0.139 C 
ENDBRANCH   4   5
ENDBRANCH   3   4
ENDBRANCH   2   3
BRANCH   2   8
ATOM      8  O   UNL     1     -35.757   4.898  10.351  1.00  0.00    -0.455 OA
BRANCH   8   9
ATOM      9  C   UNL     1     -36.563   5.952  10.055  1.00  0.00    +0.303 C 
ATOM     10  O   UNL     1     -36.894   6.309   8.934  1.00  0.00    -0.253 OA
ATOM     11  C   UNL     1     -36.985   6.637  11.319  1.00  0.00    +0.139 C 
ENDBRANCH   8   9
ENDBRANCH   2   8
ENDBRANCH   1   2
BRANCH   1  12
ATOM     12  O   UNL     1     -33.234   2.778   9.059  1.00  0.00    -0.454 OA
BRANCH  12  13
ATOM     13  C   UNL     1     -32.199   2.360   9.836  1.00  0.00    +0.303 C 
ATOM     14  O   UNL     1     -31.013   2.512   9.584  1.00  0.00    -0.253 OA
ATOM     15  C   UNL     1     -32.726   1.668  11.056  1.00  0.00    +0.139 C 
ENDBRANCH  12  13
ENDBRANCH   1  12
BRANCH   1  16
ATOM     16  C   UNL     1     -33.030   5.054   8.165  1.00  0.00    +0.259 C 
BRANCH  16  17
ATOM     17  C   UNL     1     -32.248   6.244   8.744  1.00  0.00    +0.282 C 
BRANCH  17  18
ATOM     18  O   UNL     1     -31.236   6.687   7.814  1.00  0.00    -0.462 OA
BRANCH  18  19
ATOM     19  C   UNL     1     -31.296   8.006   7.481  1.00  0.00    +0.302 C 
ATOM     20  O   UNL     1     -32.296   8.705   7.557  1.00  0.00    -0.253 OA
ATOM     21  C   UNL     1     -29.955   8.484   7.015  1.00  0.00    +0.139 C 
ENDBRANCH  18  19
ENDBRANCH  17  18
ENDBRANCH  16  17
BRANCH  16  22
ATOM     22  O   UNL     1     -34.072   5.646   7.336  1.00  0.00    -0.455 OA
BRANCH  22  23
ATOM     23  C   UNL     1     -34.070   5.270   6.029  1.00  0.00    +0.303 C 
ATOM     24  O   UNL     1     -34.344   4.148   5.625  1.00  0.00    -0.253 OA
ATOM     25  C   UNL     1     -33.683   6.423   5.156  1.00  0.00    +0.139 C 
ENDBRANCH  22  23
ENDBRANCH  16  22
ENDBRANCH   1  16
TORSDOF 14
ENDMDL
MODEL 9
REMARK VINA RESULT:    -5.967      6.997     10.173
REMARK INTER + INTRA:         -12.500
REMARK INTER:                 -10.684
REMARK INTRA:                  -1.816
REMARK UNBOUND:                -1.650
REMARK SMILES CC(=O)OC[C@H](OC(C)=O)[C@H](OC(C)=O)[C@@H](COC(C)=O)OC(C)=O
REMARK SMILES IDX 11 1 16 2 17 3 18 4 19 5 21 6 20 7 22 8 23 9 25 10 24 11
REMARK SMILES IDX 12 12 13 13 15 14 14 15 6 16 5 17 4 18 2 19 3 20 1 21 7 22
REMARK SMILES IDX 8 23 10 24 9 25
REMARK H PARENT
ROOT
ATOM      1  C   UNL     1     -26.757  -0.390   9.975  1.00  0.00    +0.265 C 
ENDROOT
BRANCH   1   2
ATOM      2  C   UNL     1     -25.915   0.873   9.687  1.00  0.00    +0.259 C 
BRANCH   2   3
ATOM      3  C   UNL     1     -26.745   2.162   9.772  1.00  0.00    +0.282 C 
BRANCH   3   4
ATOM      4  O   UNL     1     -26.196   3.109   8.834  1.00  0.00    -0.462 OA
BRANCH   4   5
ATOM      5  C   UNL     1     -26.131   4.385   9.300  1.00  0.00    +0.302 C 
ATOM      6  O   UNL     1     -26.968   5.254   9.108  1.00  0.00    -0.253 OA
ATOM      7  C   UNL     1     -24.871   4.580  10.087  1.00  0.00    +0.139 C 
ENDBRANCH   4   5
ENDBRANCH   3   4
ENDBRANCH   2   3
BRANCH   2   8
ATOM      8  O   UNL     1     -24.824   0.999  10.629  1.00  0.00    -0.455 OA
BRANCH   8   9
ATOM      9  C   UNL     1     -23.566   1.057  10.115  1.00  0.00    +0.303 C 
ATOM     10  O   UNL     1     -23.251   1.555   9.045  1.00  0.00    -0.253 OA
ATOM     11  C   UNL     1     -22.605   0.396  11.055  1.00  0.00    +0.139 C 
ENDBRANCH   8   9
ENDBRANCH   2   8
ENDBRANCH   1   2
BRANCH   1  12
ATOM     12  O   UNL     1     -25.844  -1.453  10.357  1.00  0.00    -0.454 OA
BRANCH  12  13
ATOM     13  C   UNL     1     -25.266  -2.163   9.351  1.00  0.00    +0.303 C 
ATOM     14  O   UNL     1     -25.697  -2.264   8.212  1.00  0.00    -0.253 OA
ATOM     15  C   UNL     1     -24.015  -2.822   9.847  1.00  0.00    +0.139 C 
ENDBRANCH  12  13
ENDBRANCH   1  12
BRANCH   1  16
ATOM     16  C   UNL     1     -27.842  -0.222  11.070  1.00  0.00    +0.259 C 
BRANCH  16  17
ATOM     17  C   UNL     1     -27.470  -0.856  12.420  1.00  0.00    +0.282 C 
BRANCH  17  18
ATOM     18  O   UNL     1     -27.575   0.115  13.484  1.00  0.00    -0.462 OA
BRANCH  18  19
ATOM     19  C   UNL     1     -27.933  -0.392  14.696  1.00  0.00    +0.302 C 
ATOM     20  O   UNL     1     -27.234  -0.372  15.699  1.00  0.00    -0.253 OA
ATOM     21  C   UNL     1     -29.311  -0.973  14.628  1.00  0.00    +0.139 C 
ENDBRANCH  18  19
ENDBRANCH  17  18
ENDBRANCH  16  17
BRANCH  16  22
ATOM     22  O   UNL     1     -29.060  -0.902  10.649  1.00  0.00    -0.455 OA
BRANCH  22  23
ATOM     23  C   UNL     1     -30.225  -0.321  11.041  1.00  0.00    +0.303 C 
ATOM     24  O   UNL     1     -31.168  -0.917  11.542  1.00  0.00    -0.253 OA
ATOM     25  C   UNL     1     -30.190   1.151  10.771  1.00  0.00    +0.139 C 
ENDBRANCH  22  23
ENDBRANCH  16  22
ENDBRANCH   1  16
TORSDOF 14
ENDMDL
