MODEL 1
REMARK VINA RESULT:   -10.530      0.000      0.000
REMARK INTER + INTRA:         -21.871
REMARK INTER:                 -19.149
REMARK INTRA:                  -2.722
REMARK UNBOUND:                -2.722
REMARK SMILES CO[C@H]1O[C@H](COS(=O)(=O)c2ccc(C)cc2)[C@H](OC(=O)c2ccccc2)[C@H](OC(=O)c2ccccc2)[C@H]1OC(=O)c1ccccc1
REMARK SMILES IDX 6 1 5 2 3 3 4 4 38 5 28 6 18 7 2 8 1 9 39 10 40 11 41 12
REMARK SMILES IDX 42 13 43 14 47 15 44 16 46 17 45 18 29 19 30 20 31 21 32 22
REMARK SMILES IDX 33 23 37 24 34 25 36 26 35 27 19 28 20 29 21 30 22 31 23 32
REMARK SMILES IDX 27 33 24 34 26 35 25 36 7 37 8 38 9 39 10 40 11 41 12 42
REMARK SMILES IDX 17 43 13 44 16 45 14 46 15 47
REMARK H PARENT
ROOT
ATOM      1  C   UNL     1     -27.621   4.391   8.819  1.00  0.00    +0.219 C 
ENDROOT
BRANCH   1   2
ATOM      2  C   UNL     1     -26.907   3.200   9.461  1.00  0.00    +0.193 C 
ATOM      3  C   UNL     1     -25.223   2.725  11.086  1.00  0.00    +0.295 C 
ATOM      4  O   UNL     1     -26.173   3.685  10.595  1.00  0.00    -0.339 OA
ATOM      5  C   UNL     1     -25.747   1.259  11.023  1.00  0.00    +0.277 C 
ATOM      6  C   UNL     1     -27.276   1.261  11.094  1.00  0.00    +0.266 C 
ATOM      7  C   UNL     1     -27.868   2.079   9.916  1.00  0.00    +0.253 C 
BRANCH   3   8
ATOM      8  O   UNL     1     -23.979   2.843  10.396  1.00  0.00    -0.352 OA
ATOM      9  C   UNL     1     -22.871   2.510  11.216  1.00  0.00    +0.198 C 
ENDBRANCH   3   8
BRANCH   5  10
ATOM     10  O   UNL     1     -25.366   0.609   9.786  1.00  0.00    -0.449 OA
BRANCH  10  11
ATOM     11  C   UNL     1     -25.496  -0.743   9.776  1.00  0.00    +0.338 C 
ATOM     12  O   UNL     1     -26.536  -1.358   9.596  1.00  0.00    -0.246 OA
BRANCH  11  13
ATOM     13  C   UNL     1     -24.178  -1.399   9.987  1.00  0.00    +0.060 A 
ATOM     14  C   UNL     1     -23.079  -0.722  10.536  1.00  0.00    +0.015 A 
ATOM     15  C   UNL     1     -24.046  -2.748   9.628  1.00  0.00    +0.015 A 
ATOM     16  C   UNL     1     -21.865  -1.390  10.718  1.00  0.00    +0.001 A 
ATOM     17  C   UNL     1     -22.831  -3.410   9.810  1.00  0.00    +0.001 A 
ATOM     18  C   UNL     1     -21.742  -2.731  10.355  1.00  0.00    +0.000 A 
ENDBRANCH  11  13
ENDBRANCH  10  11
ENDBRANCH   5  10
BRANCH   6  19
ATOM     19  O   UNL     1     -27.654   1.809  12.379  1.00  0.00    -0.450 OA
BRANCH  19  20
ATOM     20  C   UNL     1     -27.971   0.907  13.342  1.00  0.00    +0.338 C 
ATOM     21  O   UNL     1     -27.297   0.645  14.326  1.00  0.00    -0.246 OA
BRANCH  20  22
ATOM     22  C   UNL     1     -29.268   0.249  13.034  1.00  0.00    +0.060 A 
ATOM     23  C   UNL     1     -30.501   0.892  13.208  1.00  0.00    +0.015 A 
ATOM     24  C   UNL     1     -29.241  -1.066  12.547  1.00  0.00    +0.015 A 
ATOM     25  C   UNL     1     -31.689   0.225  12.905  1.00  0.00    +0.001 A 
ATOM     26  C   UNL     1     -30.432  -1.729  12.243  1.00  0.00    +0.001 A 
ATOM     27  C   UNL     1     -31.654  -1.085  12.426  1.00  0.00    +0.000 A 
ENDBRANCH  20  22
ENDBRANCH  19  20
ENDBRANCH   6  19
BRANCH   7  28
ATOM     28  O   UNL     1     -29.143   2.624  10.327  1.00  0.00    -0.452 OA
BRANCH  28  29
ATOM     29  C   UNL     1     -30.257   1.969   9.921  1.00  0.00    +0.338 C 
ATOM     30  O   UNL     1     -30.341   0.767   9.726  1.00  0.00    -0.246 OA
BRANCH  29  31
ATOM     31  C   UNL     1     -31.377   2.926   9.711  1.00  0.00    +0.060 A 
ATOM     32  C   UNL     1     -31.185   4.198   9.155  1.00  0.00    +0.015 A 
ATOM     33  C   UNL     1     -32.668   2.522  10.080  1.00  0.00    +0.015 A 
ATOM     34  C   UNL     1     -32.274   5.057   8.977  1.00  0.00    +0.001 A 
ATOM     35  C   UNL     1     -33.753   3.382   9.898  1.00  0.00    +0.001 A 
ATOM     36  C   UNL     1     -33.554   4.647   9.349  1.00  0.00    +0.000 A 
ENDBRANCH  29  31
ENDBRANCH  28  29
ENDBRANCH   7  28
ENDBRANCH   1   2
BRANCH   1  37
ATOM     37  O   UNL     1     -26.860   5.568   9.075  1.00  0.00    -0.263 OA
BRANCH  37  38
ATOM     38  S   UNL     1     -25.906   6.146   7.888  1.00  0.00    +0.297 S 
ATOM     39  O   UNL     1     -25.918   5.206   6.783  1.00  0.00    -0.194 OA
ATOM     40  O   UNL     1     -24.657   6.571   8.485  1.00  0.00    -0.194 OA
BRANCH  38  41
ATOM     41  C   UNL     1     -26.754   7.618   7.362  1.00  0.00    +0.094 A 
ATOM     42  C   UNL     1     -26.076   8.605   6.643  1.00  0.00    +0.023 A 
ATOM     43  C   UNL     1     -28.101   7.776   7.701  1.00  0.00    +0.023 A 
ATOM     44  C   UNL     1     -26.759   9.758   6.253  1.00  0.00    +0.005 A 
ATOM     45  C   UNL     1     -28.776   8.933   7.308  1.00  0.00    +0.005 A 
ATOM     46  C   UNL     1     -28.115   9.927   6.574  1.00  0.00    -0.051 A 
ATOM     47  C   UNL     1     -28.827  11.190   6.184  1.00  0.00    +0.044 C 
ENDBRANCH  38  41
ENDBRANCH  37  38
ENDBRANCH   1  37
TORSDOF 14
ENDMDL
MODEL 2
REMARK VINA RESULT:   -10.373      3.063      6.944
REMARK INTER + INTRA:         -21.585
REMARK INTER:                 -18.418
REMARK INTRA:                  -3.167
REMARK UNBOUND:                -2.722
REMARK SMILES CO[C@H]1O[C@H](COS(=O)(=O)c2ccc(C)cc2)[C@H](OC(=O)c2ccccc2)[C@H](OC(=O)c2ccccc2)[C@H]1OC(=O)c1ccccc1
REMARK SMILES IDX 6 1 5 2 3 3 4 4 38 5 28 6 18 7 2 8 1 9 39 10 40 11 41 12
REMARK SMILES IDX 42 13 43 14 47 15 44 16 46 17 45 18 29 19 30 20 31 21 32 22
REMARK SMILES IDX 33 23 37 24 34 25 36 26 35 27 19 28 20 29 21 30 22 31 23 32
REMARK SMILES IDX 27 33 24 34 26 35 25 36 7 37 8 38 9 39 10 40 11 41 12 42
REMARK SMILES IDX 17 43 13 44 16 45 14 46 15 47
REMARK H PARENT
ROOT
ATOM      1  C   UNL     1     -31.233   2.485   9.800  1.00  0.00    +0.219 C 
ENDROOT
BRANCH   1   2
ATOM      2  C   UNL     1     -30.929   1.328  10.754  1.00  0.00    +0.193 C 
ATOM      3  C   UNL     1     -31.036  -1.056  10.845  1.00  0.00    +0.295 C 
ATOM      4  O   UNL     1     -30.995   0.107  10.002  1.00  0.00    -0.339 OA
ATOM      5  C   UNL     1     -30.135  -0.927  12.110  1.00  0.00    +0.277 C 
ATOM      6  C   UNL     1     -28.987   0.043  11.820  1.00  0.00    +0.266 C 
ATOM      7  C   UNL     1     -29.545   1.437  11.431  1.00  0.00    +0.253 C 
BRANCH   3   8
ATOM      8  O   UNL     1     -32.379  -1.366  11.216  1.00  0.00    -0.352 OA
ATOM      9  C   UNL     1     -32.580  -2.758  11.407  1.00  0.00    +0.198 C 
ENDBRANCH   3   8
BRANCH   5  10
ATOM     10  O   UNL     1     -30.875  -0.406  13.241  1.00  0.00    -0.449 OA
BRANCH  10  11
ATOM     11  C   UNL     1     -30.189  -0.360  14.412  1.00  0.00    +0.338 C 
ATOM     12  O   UNL     1     -29.509   0.575  14.804  1.00  0.00    -0.246 OA
BRANCH  11  13
ATOM     13  C   UNL     1     -30.396  -1.610  15.191  1.00  0.00    +0.060 A 
ATOM     14  C   UNL     1     -31.073  -2.721  14.667  1.00  0.00    +0.015 A 
ATOM     15  C   UNL     1     -29.883  -1.670  16.495  1.00  0.00    +0.015 A 
ATOM     16  C   UNL     1     -31.233  -3.874  15.441  1.00  0.00    +0.001 A 
ATOM     17  C   UNL     1     -30.049  -2.822  17.266  1.00  0.00    +0.001 A 
ATOM     18  C   UNL     1     -30.723  -3.922  16.738  1.00  0.00    +0.000 A 
ENDBRANCH  11  13
ENDBRANCH  10  11
ENDBRANCH   5  10
BRANCH   6  19
ATOM     19  O   UNL     1     -28.183  -0.533  10.764  1.00  0.00    -0.450 OA
BRANCH  19  20
ATOM     20  C   UNL     1     -27.009  -1.096  11.146  1.00  0.00    +0.338 C 
ATOM     21  O   UNL     1     -26.881  -2.180  11.696  1.00  0.00    -0.246 OA
BRANCH  20  22
ATOM     22  C   UNL     1     -25.869  -0.199  10.820  1.00  0.00    +0.060 A 
ATOM     23  C   UNL     1     -24.990   0.290  11.797  1.00  0.00    +0.015 A 
ATOM     24  C   UNL     1     -25.675   0.160   9.479  1.00  0.00    +0.015 A 
ATOM     25  C   UNL     1     -23.937   1.131  11.435  1.00  0.00    +0.001 A 
ATOM     26  C   UNL     1     -24.619   1.001   9.121  1.00  0.00    +0.001 A 
ATOM     27  C   UNL     1     -23.753   1.488  10.099  1.00  0.00    +0.000 A 
ENDBRANCH  20  22
ENDBRANCH  19  20
ENDBRANCH   6  19
BRANCH   7  28
ATOM     28  O   UNL     1     -28.592   2.090  10.562  1.00  0.00    -0.452 OA
BRANCH  28  29
ATOM     29  C   UNL     1     -27.618   2.825  11.150  1.00  0.00    +0.338 C 
ATOM     30  O   UNL     1     -27.347   2.820  12.340  1.00  0.00    -0.246 OA
BRANCH  29  31
ATOM     31  C   UNL     1     -26.927   3.676  10.144  1.00  0.00    +0.060 A 
ATOM     32  C   UNL     1     -27.489   3.969   8.894  1.00  0.00    +0.015 A 
ATOM     33  C   UNL     1     -25.672   4.205  10.477  1.00  0.00    +0.015 A 
ATOM     34  C   UNL     1     -26.798   4.777   7.986  1.00  0.00    +0.001 A 
ATOM     35  C   UNL     1     -24.986   5.014   9.569  1.00  0.00    +0.001 A 
ATOM     36  C   UNL     1     -25.550   5.297   8.326  1.00  0.00    +0.000 A 
ENDBRANCH  29  31
ENDBRANCH  28  29
ENDBRANCH   7  28
ENDBRANCH   1   2
BRANCH   1  37
ATOM     37  O   UNL     1     -32.546   2.307   9.276  1.00  0.00    -0.263 OA
BRANCH  37  38
ATOM     38  S   UNL     1     -33.666   3.446   9.593  1.00  0.00    +0.297 S 
ATOM     39  O   UNL     1     -33.399   4.009  10.903  1.00  0.00    -0.194 OA
ATOM     40  O   UNL     1     -34.968   2.894   9.276  1.00  0.00    -0.194 OA
BRANCH  38  41
ATOM     41  C   UNL     1     -33.328   4.701   8.380  1.00  0.00    +0.094 A 
ATOM     42  C   UNL     1     -34.076   4.765   7.202  1.00  0.00    +0.023 A 
ATOM     43  C   UNL     1     -32.288   5.604   8.617  1.00  0.00    +0.023 A 
ATOM     44  C   UNL     1     -33.783   5.750   6.258  1.00  0.00    +0.005 A 
ATOM     45  C   UNL     1     -32.001   6.586   7.667  1.00  0.00    +0.005 A 
ATOM     46  C   UNL     1     -32.751   6.673   6.487  1.00  0.00    -0.051 A 
ATOM     47  C   UNL     1     -32.419   7.703   5.445  1.00  0.00    +0.044 C 
ENDBRANCH  38  41
ENDBRANCH  37  38
ENDBRANCH   1  37
TORSDOF 14
ENDMDL
MODEL 3
REMARK VINA RESULT:   -10.079      3.244      7.651
REMARK INTER + INTRA:         -21.050
REMARK INTER:                 -18.181
REMARK INTRA:                  -2.869
REMARK UNBOUND:                -2.722
REMARK SMILES CO[C@H]1O[C@H](COS(=O)(=O)c2ccc(C)cc2)[C@H](OC(=O)c2ccccc2)[C@H](OC(=O)c2ccccc2)[C@H]1OC(=O)c1ccccc1
REMARK SMILES IDX 6 1 5 2 3 3 4 4 38 5 28 6 18 7 2 8 1 9 39 10 40 11 41 12
REMARK SMILES IDX 42 13 43 14 47 15 44 16 46 17 45 18 29 19 30 20 31 21 32 22
REMARK SMILES IDX 33 23 37 24 34 25 36 26 35 27 19 28 20 29 21 30 22 31 23 32
REMARK SMILES IDX 27 33 24 34 26 35 25 36 7 37 8 38 9 39 10 40 11 41 12 42
REMARK SMILES IDX 17 43 13 44 16 45 14 46 15 47
REMARK H PARENT
ROOT
ATOM      1  C   UNL     1     -31.249   2.485   9.761  1.00  0.00    +0.219 C 
ENDROOT
BRANCH   1   2
ATOM      2  C   UNL     1     -30.942   1.340  10.727  1.00  0.00    +0.193 C 
ATOM      3  C   UNL     1     -31.030  -1.044  10.839  1.00  0.00    +0.295 C 
ATOM      4  O   UNL     1     -30.993   0.111   9.986  1.00  0.00    -0.339 OA
ATOM      5  C   UNL     1     -30.138  -0.896  12.108  1.00  0.00    +0.277 C 
ATOM      6  C   UNL     1     -28.996   0.080  11.817  1.00  0.00    +0.266 C 
ATOM      7  C   UNL     1     -29.563   1.466  11.412  1.00  0.00    +0.253 C 
BRANCH   3   8
ATOM      8  O   UNL     1     -32.373  -1.362  11.206  1.00  0.00    -0.352 OA
ATOM      9  C   UNL     1     -32.547  -2.744  11.476  1.00  0.00    +0.198 C 
ENDBRANCH   3   8
BRANCH   5  10
ATOM     10  O   UNL     1     -30.889  -0.371  13.230  1.00  0.00    -0.449 OA
BRANCH  10  11
ATOM     11  C   UNL     1     -30.178  -0.199  14.375  1.00  0.00    +0.338 C 
ATOM     12  O   UNL     1     -29.545   0.800  14.678  1.00  0.00    -0.246 OA
BRANCH  11  13
ATOM     13  C   UNL     1     -30.293  -1.397  15.249  1.00  0.00    +0.060 A 
ATOM     14  C   UNL     1     -30.971  -2.559  14.850  1.00  0.00    +0.015 A 
ATOM     15  C   UNL     1     -29.688  -1.354  16.513  1.00  0.00    +0.015 A 
ATOM     16  C   UNL     1     -31.043  -3.658  15.710  1.00  0.00    +0.001 A 
ATOM     17  C   UNL     1     -29.764  -2.454  17.369  1.00  0.00    +0.001 A 
ATOM     18  C   UNL     1     -30.441  -3.605  16.967  1.00  0.00    +0.000 A 
ENDBRANCH  11  13
ENDBRANCH  10  11
ENDBRANCH   5  10
BRANCH   6  19
ATOM     19  O   UNL     1     -28.181  -0.499  10.771  1.00  0.00    -0.450 OA
BRANCH  19  20
ATOM     20  C   UNL     1     -27.004  -1.048  11.165  1.00  0.00    +0.338 C 
ATOM     21  O   UNL     1     -26.872  -2.108  11.758  1.00  0.00    -0.246 OA
BRANCH  20  22
ATOM     22  C   UNL     1     -25.866  -0.167  10.791  1.00  0.00    +0.060 A 
ATOM     23  C   UNL     1     -25.583   0.177   9.462  1.00  0.00    +0.015 A 
ATOM     24  C   UNL     1     -25.055   0.335  11.819  1.00  0.00    +0.015 A 
ATOM     25  C   UNL     1     -24.500   1.006   9.167  1.00  0.00    +0.001 A 
ATOM     26  C   UNL     1     -23.973   1.165  11.520  1.00  0.00    +0.001 A 
ATOM     27  C   UNL     1     -23.694   1.498  10.195  1.00  0.00    +0.000 A 
ENDBRANCH  20  22
ENDBRANCH  19  20
ENDBRANCH   6  19
BRANCH   7  28
ATOM     28  O   UNL     1     -28.610   2.119  10.542  1.00  0.00    -0.452 OA
BRANCH  28  29
ATOM     29  C   UNL     1     -27.637   2.855  11.130  1.00  0.00    +0.338 C 
ATOM     30  O   UNL     1     -27.371   2.857  12.321  1.00  0.00    -0.246 OA
BRANCH  29  31
ATOM     31  C   UNL     1     -26.939   3.698  10.122  1.00  0.00    +0.060 A 
ATOM     32  C   UNL     1     -27.507   4.008   8.878  1.00  0.00    +0.015 A 
ATOM     33  C   UNL     1     -25.672   4.203  10.445  1.00  0.00    +0.015 A 
ATOM     34  C   UNL     1     -26.810   4.807   7.968  1.00  0.00    +0.001 A 
ATOM     35  C   UNL     1     -24.980   5.004   9.535  1.00  0.00    +0.001 A 
ATOM     36  C   UNL     1     -25.549   5.303   8.298  1.00  0.00    +0.000 A 
ENDBRANCH  29  31
ENDBRANCH  28  29
ENDBRANCH   7  28
ENDBRANCH   1   2
BRANCH   1  37
ATOM     37  O   UNL     1     -32.438   3.139  10.197  1.00  0.00    -0.263 OA
BRANCH  37  38
ATOM     38  S   UNL     1     -33.796   2.255  10.352  1.00  0.00    +0.297 S 
ATOM     39  O   UNL     1     -33.872   1.754  11.711  1.00  0.00    -0.194 OA
ATOM     40  O   UNL     1     -33.872   1.350   9.224  1.00  0.00    -0.194 OA
BRANCH  38  41
ATOM     41  C   UNL     1     -35.092   3.455  10.140  1.00  0.00    +0.094 A 
ATOM     42  C   UNL     1     -35.205   4.535  11.018  1.00  0.00    +0.023 A 
ATOM     43  C   UNL     1     -36.005   3.282   9.097  1.00  0.00    +0.023 A 
ATOM     44  C   UNL     1     -36.239   5.456  10.841  1.00  0.00    +0.005 A 
ATOM     45  C   UNL     1     -37.037   4.206   8.927  1.00  0.00    +0.005 A 
ATOM     46  C   UNL     1     -37.156   5.304   9.790  1.00  0.00    -0.051 A 
ATOM     47  C   UNL     1     -38.288   6.279   9.634  1.00  0.00    +0.044 C 
ENDBRANCH  38  41
ENDBRANCH  37  38
ENDBRANCH   1  37
TORSDOF 14
ENDMDL
MODEL 4
REMARK VINA RESULT:    -9.945      2.880      6.592
REMARK INTER + INTRA:         -20.806
REMARK INTER:                 -18.762
REMARK INTRA:                  -2.043
REMARK UNBOUND:                -2.722
REMARK SMILES CO[C@H]1O[C@H](COS(=O)(=O)c2ccc(C)cc2)[C@H](OC(=O)c2ccccc2)[C@H](OC(=O)c2ccccc2)[C@H]1OC(=O)c1ccccc1
REMARK SMILES IDX 6 1 5 2 3 3 4 4 38 5 28 6 18 7 2 8 1 9 39 10 40 11 41 12
REMARK SMILES IDX 42 13 43 14 47 15 44 16 46 17 45 18 29 19 30 20 31 21 32 22
REMARK SMILES IDX 33 23 37 24 34 25 36 26 35 27 19 28 20 29 21 30 22 31 23 32
REMARK SMILES IDX 27 33 24 34 26 35 25 36 7 37 8 38 9 39 10 40 11 41 12 42
REMARK SMILES IDX 17 43 13 44 16 45 14 46 15 47
REMARK H PARENT
ROOT
ATOM      1  C   UNL     1     -30.957   2.747   9.638  1.00  0.00    +0.219 C 
ENDROOT
BRANCH   1   2
ATOM      2  C   UNL     1     -30.687   1.612  10.626  1.00  0.00    +0.193 C 
ATOM      3  C   UNL     1     -30.889  -0.761  10.800  1.00  0.00    +0.295 C 
ATOM      4  O   UNL     1     -30.812   0.369   9.917  1.00  0.00    -0.339 OA
ATOM      5  C   UNL     1     -29.966  -0.627  12.048  1.00  0.00    +0.277 C 
ATOM      6  C   UNL     1     -28.783   0.285  11.711  1.00  0.00    +0.266 C 
ATOM      7  C   UNL     1     -29.290   1.687  11.282  1.00  0.00    +0.253 C 
BRANCH   3   8
ATOM      8  O   UNL     1     -32.238  -1.004  11.199  1.00  0.00    -0.352 OA
ATOM      9  C   UNL     1     -32.511  -2.386  11.372  1.00  0.00    +0.198 C 
ENDBRANCH   3   8
BRANCH   5  10
ATOM     10  O   UNL     1     -30.667  -0.039  13.170  1.00  0.00    -0.449 OA
BRANCH  10  11
ATOM     11  C   UNL     1     -29.960   0.028  14.328  1.00  0.00    +0.338 C 
ATOM     12  O   UNL     1     -29.283   0.975  14.696  1.00  0.00    -0.246 OA
BRANCH  11  13
ATOM     13  C   UNL     1     -30.139  -1.215  15.125  1.00  0.00    +0.060 A 
ATOM     14  C   UNL     1     -30.774  -2.355  14.611  1.00  0.00    +0.015 A 
ATOM     15  C   UNL     1     -29.642  -1.237  16.436  1.00  0.00    +0.015 A 
ATOM     16  C   UNL     1     -30.910  -3.498  15.402  1.00  0.00    +0.001 A 
ATOM     17  C   UNL     1     -29.783  -2.381  17.224  1.00  0.00    +0.001 A 
ATOM     18  C   UNL     1     -30.416  -3.510  16.706  1.00  0.00    +0.000 A 
ENDBRANCH  11  13
ENDBRANCH  10  11
ENDBRANCH   5  10
BRANCH   6  19
ATOM     19  O   UNL     1     -28.018  -0.359  10.665  1.00  0.00    -0.450 OA
BRANCH  19  20
ATOM     20  C   UNL     1     -26.756  -0.735  10.993  1.00  0.00    +0.338 C 
ATOM     21  O   UNL     1     -25.780  -0.001  11.038  1.00  0.00    -0.246 OA
BRANCH  20  22
ATOM     22  C   UNL     1     -26.704  -2.192  11.282  1.00  0.00    +0.060 A 
ATOM     23  C   UNL     1     -25.896  -3.077  10.553  1.00  0.00    +0.015 A 
ATOM     24  C   UNL     1     -27.495  -2.686  12.329  1.00  0.00    +0.015 A 
ATOM     25  C   UNL     1     -25.887  -4.438  10.866  1.00  0.00    +0.001 A 
ATOM     26  C   UNL     1     -27.481  -4.047  12.639  1.00  0.00    +0.001 A 
ATOM     27  C   UNL     1     -26.681  -4.922  11.906  1.00  0.00    +0.000 A 
ENDBRANCH  20  22
ENDBRANCH  19  20
ENDBRANCH   6  19
BRANCH   7  28
ATOM     28  O   UNL     1     -28.324   2.271  10.378  1.00  0.00    -0.452 OA
BRANCH  28  29
ATOM     29  C   UNL     1     -27.361   3.053  10.922  1.00  0.00    +0.338 C 
ATOM     30  O   UNL     1     -26.983   3.010  12.082  1.00  0.00    -0.246 OA
BRANCH  29  31
ATOM     31  C   UNL     1     -26.834   4.010   9.911  1.00  0.00    +0.060 A 
ATOM     32  C   UNL     1     -27.646   4.578   8.919  1.00  0.00    +0.015 A 
ATOM     33  C   UNL     1     -25.477   4.354   9.971  1.00  0.00    +0.015 A 
ATOM     34  C   UNL     1     -27.100   5.475   7.996  1.00  0.00    +0.001 A 
ATOM     35  C   UNL     1     -24.936   5.251   9.049  1.00  0.00    +0.001 A 
ATOM     36  C   UNL     1     -25.748   5.809   8.062  1.00  0.00    +0.000 A 
ENDBRANCH  29  31
ENDBRANCH  28  29
ENDBRANCH   7  28
ENDBRANCH   1   2
BRANCH   1  37
ATOM     37  O   UNL     1     -32.248   2.552   9.066  1.00  0.00    -0.263 OA
BRANCH  37  38
ATOM     38  S   UNL     1     -33.419   3.629   9.412  1.00  0.00    +0.297 S 
ATOM     39  O   UNL     1     -33.288   4.027  10.801  1.00  0.00    -0.194 OA
ATOM     40  O   UNL     1     -34.672   3.108   8.906  1.00  0.00    -0.194 OA
BRANCH  38  41
ATOM     41  C   UNL     1     -32.997   5.031   8.401  1.00  0.00    +0.094 A 
ATOM     42  C   UNL     1     -31.927   5.857   8.750  1.00  0.00    +0.023 A 
ATOM     43  C   UNL     1     -33.770   5.301   7.269  1.00  0.00    +0.023 A 
ATOM     44  C   UNL     1     -31.623   6.959   7.950  1.00  0.00    +0.005 A 
ATOM     45  C   UNL     1     -33.462   6.407   6.474  1.00  0.00    +0.005 A 
ATOM     46  C   UNL     1     -32.381   7.237   6.802  1.00  0.00    -0.051 A 
ATOM     47  C   UNL     1     -32.071   8.449   5.972  1.00  0.00    +0.044 C 
ENDBRANCH  38  41
ENDBRANCH  37  38
ENDBRANCH   1  37
TORSDOF 14
ENDMDL
MODEL 5
REMARK VINA RESULT:    -9.775      1.738      2.637
REMARK INTER + INTRA:         -20.498
REMARK INTER:                 -17.932
REMARK INTRA:                  -2.566
REMARK UNBOUND:                -2.722
REMARK SMILES CO[C@H]1O[C@H](COS(=O)(=O)c2ccc(C)cc2)[C@H](OC(=O)c2ccccc2)[C@H](OC(=O)c2ccccc2)[C@H]1OC(=O)c1ccccc1
REMARK SMILES IDX 6 1 5 2 3 3 4 4 38 5 28 6 18 7 2 8 1 9 39 10 40 11 41 12
REMARK SMILES IDX 42 13 43 14 47 15 44 16 46 17 45 18 29 19 30 20 31 21 32 22
REMARK SMILES IDX 33 23 37 24 34 25 36 26 35 27 19 28 20 29 21 30 22 31 23 32
REMARK SMILES IDX 27 33 24 34 26 35 25 36 7 37 8 38 9 39 10 40 11 41 12 42
REMARK SMILES IDX 17 43 13 44 16 45 14 46 15 47
REMARK H PARENT
ROOT
ATOM      1  C   UNL     1     -28.063   2.738  10.570  1.00  0.00    +0.219 C 
ENDROOT
BRANCH   1   2
ATOM      2  C   UNL     1     -27.296   1.417  10.507  1.00  0.00    +0.193 C 
ATOM      3  C   UNL     1     -25.580   0.230  11.669  1.00  0.00    +0.295 C 
ATOM      4  O   UNL     1     -26.572   1.267  11.738  1.00  0.00    -0.339 OA
ATOM      5  C   UNL     1     -26.043  -1.006  10.843  1.00  0.00    +0.277 C 
ATOM      6  C   UNL     1     -27.571  -1.102  10.882  1.00  0.00    +0.266 C 
ATOM      7  C   UNL     1     -28.206   0.186  10.296  1.00  0.00    +0.253 C 
BRANCH   3   8
ATOM      8  O   UNL     1     -24.348   0.740  11.160  1.00  0.00    -0.352 OA
ATOM      9  C   UNL     1     -24.014   2.003  11.714  1.00  0.00    +0.198 C 
ENDBRANCH   3   8
BRANCH   5  10
ATOM     10  O   UNL     1     -25.646  -0.899   9.454  1.00  0.00    -0.449 OA
BRANCH  10  11
ATOM     11  C   UNL     1     -25.217  -2.054   8.882  1.00  0.00    +0.338 C 
ATOM     12  O   UNL     1     -25.740  -2.618   7.933  1.00  0.00    -0.246 OA
BRANCH  11  13
ATOM     13  C   UNL     1     -23.983  -2.546   9.553  1.00  0.00    +0.060 A 
ATOM     14  C   UNL     1     -23.852  -3.863  10.016  1.00  0.00    +0.015 A 
ATOM     15  C   UNL     1     -22.917  -1.650   9.713  1.00  0.00    +0.015 A 
ATOM     16  C   UNL     1     -22.667  -4.274  10.634  1.00  0.00    +0.001 A 
ATOM     17  C   UNL     1     -21.736  -2.064  10.333  1.00  0.00    +0.001 A 
ATOM     18  C   UNL     1     -21.613  -3.375  10.792  1.00  0.00    +0.000 A 
ENDBRANCH  11  13
ENDBRANCH  10  11
ENDBRANCH   5  10
BRANCH   6  19
ATOM     19  O   UNL     1     -27.961  -1.321  12.258  1.00  0.00    -0.450 OA
BRANCH  19  20
ATOM     20  C   UNL     1     -28.062  -2.616  12.651  1.00  0.00    +0.338 C 
ATOM     21  O   UNL     1     -27.154  -3.433  12.664  1.00  0.00    -0.246 OA
BRANCH  20  22
ATOM     22  C   UNL     1     -29.457  -2.929  13.059  1.00  0.00    +0.060 A 
ATOM     23  C   UNL     1     -29.761  -3.613  14.245  1.00  0.00    +0.015 A 
ATOM     24  C   UNL     1     -30.500  -2.516  12.217  1.00  0.00    +0.015 A 
ATOM     25  C   UNL     1     -31.089  -3.883  14.578  1.00  0.00    +0.001 A 
ATOM     26  C   UNL     1     -31.827  -2.787  12.556  1.00  0.00    +0.001 A 
ATOM     27  C   UNL     1     -32.121  -3.473  13.733  1.00  0.00    +0.000 A 
ENDBRANCH  20  22
ENDBRANCH  19  20
ENDBRANCH   6  19
BRANCH   7  28
ATOM     28  O   UNL     1     -29.498   0.386  10.913  1.00  0.00    -0.452 OA
BRANCH  28  29
ATOM     29  C   UNL     1     -30.590   0.234  10.126  1.00  0.00    +0.338 C 
ATOM     30  O   UNL     1     -30.669  -0.504   9.157  1.00  0.00    -0.246 OA
BRANCH  29  31
ATOM     31  C   UNL     1     -31.693   1.121  10.586  1.00  0.00    +0.060 A 
ATOM     32  C   UNL     1     -32.412   0.878  11.764  1.00  0.00    +0.015 A 
ATOM     33  C   UNL     1     -32.006   2.244   9.807  1.00  0.00    +0.015 A 
ATOM     34  C   UNL     1     -33.437   1.745  12.152  1.00  0.00    +0.001 A 
ATOM     35  C   UNL     1     -33.029   3.110  10.199  1.00  0.00    +0.001 A 
ATOM     36  C   UNL     1     -33.743   2.858  11.369  1.00  0.00    +0.000 A 
ENDBRANCH  29  31
ENDBRANCH  28  29
ENDBRANCH   7  28
ENDBRANCH   1   2
BRANCH   1  37
ATOM     37  O   UNL     1     -27.680   3.539   9.456  1.00  0.00    -0.263 OA
BRANCH  37  38
ATOM     38  S   UNL     1     -26.212   4.241   9.475  1.00  0.00    +0.297 S 
ATOM     39  O   UNL     1     -25.269   3.367   8.803  1.00  0.00    -0.194 OA
ATOM     40  O   UNL     1     -25.956   4.708  10.823  1.00  0.00    -0.194 OA
BRANCH  38  41
ATOM     41  C   UNL     1     -26.434   5.686   8.462  1.00  0.00    +0.094 A 
ATOM     42  C   UNL     1     -25.375   6.185   7.701  1.00  0.00    +0.023 A 
ATOM     43  C   UNL     1     -27.679   6.321   8.460  1.00  0.00    +0.023 A 
ATOM     44  C   UNL     1     -25.570   7.328   6.925  1.00  0.00    +0.005 A 
ATOM     45  C   UNL     1     -27.865   7.465   7.682  1.00  0.00    +0.005 A 
ATOM     46  C   UNL     1     -26.817   7.971   6.901  1.00  0.00    -0.051 A 
ATOM     47  C   UNL     1     -27.002   9.224   6.094  1.00  0.00    +0.044 C 
ENDBRANCH  38  41
ENDBRANCH  37  38
ENDBRANCH   1  37
TORSDOF 14
ENDMDL
MODEL 6
REMARK VINA RESULT:    -9.665      2.422      6.266
REMARK INTER + INTRA:         -20.298
REMARK INTER:                 -18.125
REMARK INTRA:                  -2.173
REMARK UNBOUND:                -2.722
REMARK SMILES CO[C@H]1O[C@H](COS(=O)(=O)c2ccc(C)cc2)[C@H](OC(=O)c2ccccc2)[C@H](OC(=O)c2ccccc2)[C@H]1OC(=O)c1ccccc1
REMARK SMILES IDX 6 1 5 2 3 3 4 4 38 5 28 6 18 7 2 8 1 9 39 10 40 11 41 12
REMARK SMILES IDX 42 13 43 14 47 15 44 16 46 17 45 18 29 19 30 20 31 21 32 22
REMARK SMILES IDX 33 23 37 24 34 25 36 26 35 27 19 28 20 29 21 30 22 31 23 32
REMARK SMILES IDX 27 33 24 34 26 35 25 36 7 37 8 38 9 39 10 40 11 41 12 42
REMARK SMILES IDX 17 43 13 44 16 45 14 46 15 47
REMARK H PARENT
ROOT
ATOM      1  C   UNL     1     -30.756   2.928   9.861  1.00  0.00    +0.219 C 
ENDROOT
BRANCH   1   2
ATOM      2  C   UNL     1     -29.976   1.779  10.501  1.00  0.00    +0.193 C 
ATOM      3  C   UNL     1     -29.581  -0.559  10.216  1.00  0.00    +0.295 C 
ATOM      4  O   UNL     1     -30.007   0.665   9.596  1.00  0.00    -0.339 OA
ATOM      5  C   UNL     1     -28.406  -0.360  11.219  1.00  0.00    +0.277 C 
ATOM      6  C   UNL     1     -27.599   0.878  10.819  1.00  0.00    +0.266 C 
ATOM      7  C   UNL     1     -28.507   2.136  10.820  1.00  0.00    +0.253 C 
BRANCH   3   8
ATOM      8  O   UNL     1     -30.678  -1.214  10.852  1.00  0.00    -0.352 OA
ATOM      9  C   UNL     1     -31.930  -0.823  10.313  1.00  0.00    +0.198 C 
ENDBRANCH   3   8
BRANCH   5  10
ATOM     10  O   UNL     1     -28.887  -0.153  12.569  1.00  0.00    -0.449 OA
BRANCH  10  11
ATOM     11  C   UNL     1     -28.200  -0.812  13.538  1.00  0.00    +0.338 C 
ATOM     12  O   UNL     1     -27.662  -0.299  14.507  1.00  0.00    -0.246 OA
BRANCH  11  13
ATOM     13  C   UNL     1     -28.209  -2.278  13.282  1.00  0.00    +0.060 A 
ATOM     14  C   UNL     1     -27.131  -2.943  12.678  1.00  0.00    +0.015 A 
ATOM     15  C   UNL     1     -29.338  -3.011  13.673  1.00  0.00    +0.015 A 
ATOM     16  C   UNL     1     -27.190  -4.324  12.468  1.00  0.00    +0.001 A 
ATOM     17  C   UNL     1     -29.393  -4.389  13.458  1.00  0.00    +0.001 A 
ATOM     18  C   UNL     1     -28.320  -5.044  12.856  1.00  0.00    +0.000 A 
ENDBRANCH  11  13
ENDBRANCH  10  11
ENDBRANCH   5  10
BRANCH   6  19
ATOM     19  O   UNL     1     -27.026   0.624   9.515  1.00  0.00    -0.450 OA
BRANCH  19  20
ATOM     20  C   UNL     1     -26.028  -0.294   9.469  1.00  0.00    +0.338 C 
ATOM     21  O   UNL     1     -26.134  -1.446   9.076  1.00  0.00    -0.246 OA
BRANCH  20  22
ATOM     22  C   UNL     1     -24.761   0.286   9.986  1.00  0.00    +0.060 A 
ATOM     23  C   UNL     1     -23.797  -0.483  10.654  1.00  0.00    +0.015 A 
ATOM     24  C   UNL     1     -24.531   1.655   9.787  1.00  0.00    +0.015 A 
ATOM     25  C   UNL     1     -22.624   0.114  11.121  1.00  0.00    +0.001 A 
ATOM     26  C   UNL     1     -23.356   2.247  10.253  1.00  0.00    +0.001 A 
ATOM     27  C   UNL     1     -22.406   1.478  10.923  1.00  0.00    +0.000 A 
ENDBRANCH  20  22
ENDBRANCH  19  20
ENDBRANCH   6  19
BRANCH   7  28
ATOM     28  O   UNL     1     -27.984   3.085   9.863  1.00  0.00    -0.452 OA
BRANCH  28  29
ATOM     29  C   UNL     1     -27.013   3.927  10.291  1.00  0.00    +0.338 C 
ATOM     30  O   UNL     1     -26.495   3.908  11.396  1.00  0.00    -0.246 OA
BRANCH  29  31
ATOM     31  C   UNL     1     -26.675   4.915   9.232  1.00  0.00    +0.060 A 
ATOM     32  C   UNL     1     -25.382   5.040   8.705  1.00  0.00    +0.015 A 
ATOM     33  C   UNL     1     -27.700   5.739   8.745  1.00  0.00    +0.015 A 
ATOM     34  C   UNL     1     -25.119   5.984   7.708  1.00  0.00    +0.001 A 
ATOM     35  C   UNL     1     -27.435   6.678   7.748  1.00  0.00    +0.001 A 
ATOM     36  C   UNL     1     -26.145   6.800   7.232  1.00  0.00    +0.000 A 
ENDBRANCH  29  31
ENDBRANCH  28  29
ENDBRANCH   7  28
ENDBRANCH   1   2
BRANCH   1  37
ATOM     37  O   UNL     1     -32.001   3.065  10.540  1.00  0.00    -0.263 OA
BRANCH  37  38
ATOM     38  S   UNL     1     -33.340   3.339   9.655  1.00  0.00    +0.297 S 
ATOM     39  O   UNL     1     -34.418   3.720  10.549  1.00  0.00    -0.194 OA
ATOM     40  O   UNL     1     -33.499   2.236   8.731  1.00  0.00    -0.194 OA
BRANCH  38  41
ATOM     41  C   UNL     1     -32.905   4.766   8.687  1.00  0.00    +0.094 A 
ATOM     42  C   UNL     1     -31.847   5.589   9.077  1.00  0.00    +0.023 A 
ATOM     43  C   UNL     1     -33.656   5.058   7.545  1.00  0.00    +0.023 A 
ATOM     44  C   UNL     1     -31.533   6.711   8.309  1.00  0.00    +0.005 A 
ATOM     45  C   UNL     1     -33.338   6.184   6.783  1.00  0.00    +0.005 A 
ATOM     46  C   UNL     1     -32.269   7.012   7.153  1.00  0.00    -0.051 A 
ATOM     47  C   UNL     1     -31.948   8.245   6.357  1.00  0.00    +0.044 C 
ENDBRANCH  38  41
ENDBRANCH  37  38
ENDBRANCH   1  37
TORSDOF 14
ENDMDL
MODEL 7
REMARK VINA RESULT:    -9.190      3.478      8.206
REMARK INTER + INTRA:         -19.433
REMARK INTER:                 -17.055
REMARK INTRA:                  -2.377
REMARK UNBOUND:                -2.722
REMARK SMILES CO[C@H]1O[C@H](COS(=O)(=O)c2ccc(C)cc2)[C@H](OC(=O)c2ccccc2)[C@H](OC(=O)c2ccccc2)[C@H]1OC(=O)c1ccccc1
REMARK SMILES IDX 6 1 5 2 3 3 4 4 38 5 28 6 18 7 2 8 1 9 39 10 40 11 41 12
REMARK SMILES IDX 42 13 43 14 47 15 44 16 46 17 45 18 29 19 30 20 31 21 32 22
REMARK SMILES IDX 33 23 37 24 34 25 36 26 35 27 19 28 20 29 21 30 22 31 23 32
REMARK SMILES IDX 27 33 24 34 26 35 25 36 7 37 8 38 9 39 10 40 11 41 12 42
REMARK SMILES IDX 17 43 13 44 16 45 14 46 15 47
REMARK H PARENT
ROOT
ATOM      1  C   UNL     1     -33.385   1.920   9.316  1.00  0.00    +0.219 C 
ENDROOT
BRANCH   1   2
ATOM      2  C   UNL     1     -32.097   1.696  10.109  1.00  0.00    +0.193 C 
ATOM      3  C   UNL     1     -30.205   0.240  10.168  1.00  0.00    +0.295 C 
ATOM      4  O   UNL     1     -31.286   0.762   9.379  1.00  0.00    -0.339 OA
ATOM      5  C   UNL     1     -29.570   1.302  11.115  1.00  0.00    +0.277 C 
ATOM      6  C   UNL     1     -29.777   2.699  10.525  1.00  0.00    +0.266 C 
ATOM      7  C   UNL     1     -31.291   2.991  10.352  1.00  0.00    +0.253 C 
BRANCH   3   8
ATOM      8  O   UNL     1     -30.625  -0.905  10.910  1.00  0.00    -0.352 OA
ATOM      9  C   UNL     1     -31.752  -1.543  10.331  1.00  0.00    +0.198 C 
ENDBRANCH   3   8
BRANCH   5  10
ATOM     10  O   UNL     1     -30.185   1.284  12.426  1.00  0.00    -0.449 OA
BRANCH  10  11
ATOM     11  C   UNL     1     -29.321   1.228  13.473  1.00  0.00    +0.338 C 
ATOM     12  O   UNL     1     -28.422   2.022  13.698  1.00  0.00    -0.246 OA
BRANCH  11  13
ATOM     13  C   UNL     1     -29.632   0.067  14.349  1.00  0.00    +0.060 A 
ATOM     14  C   UNL     1     -30.351  -1.049  13.894  1.00  0.00    +0.015 A 
ATOM     15  C   UNL     1     -29.175   0.097  15.674  1.00  0.00    +0.015 A 
ATOM     16  C   UNL     1     -30.609  -2.116  14.759  1.00  0.00    +0.001 A 
ATOM     17  C   UNL     1     -29.438  -0.969  16.535  1.00  0.00    +0.001 A 
ATOM     18  C   UNL     1     -30.154  -2.075  16.077  1.00  0.00    +0.000 A 
ENDBRANCH  11  13
ENDBRANCH  10  11
ENDBRANCH   5  10
BRANCH   6  19
ATOM     19  O   UNL     1     -29.068   2.752   9.265  1.00  0.00    -0.450 OA
BRANCH  19  20
ATOM     20  C   UNL     1     -28.115   3.712   9.156  1.00  0.00    +0.338 C 
ATOM     21  O   UNL     1     -28.279   4.835   8.703  1.00  0.00    -0.246 OA
BRANCH  20  22
ATOM     22  C   UNL     1     -26.808   3.210   9.654  1.00  0.00    +0.060 A 
ATOM     23  C   UNL     1     -25.963   3.980  10.466  1.00  0.00    +0.015 A 
ATOM     24  C   UNL     1     -26.419   1.912   9.294  1.00  0.00    +0.015 A 
ATOM     25  C   UNL     1     -24.744   3.459  10.904  1.00  0.00    +0.001 A 
ATOM     26  C   UNL     1     -25.200   1.393   9.736  1.00  0.00    +0.001 A 
ATOM     27  C   UNL     1     -24.362   2.168  10.537  1.00  0.00    +0.000 A 
ENDBRANCH  20  22
ENDBRANCH  19  20
ENDBRANCH   6  19
BRANCH   7  28
ATOM     28  O   UNL     1     -31.461   3.920   9.257  1.00  0.00    -0.452 OA
BRANCH  28  29
ATOM     29  C   UNL     1     -32.115   5.077   9.522  1.00  0.00    +0.338 C 
ATOM     30  O   UNL     1     -32.567   5.403  10.607  1.00  0.00    -0.246 OA
BRANCH  29  31
ATOM     31  C   UNL     1     -32.239   5.899   8.288  1.00  0.00    +0.060 A 
ATOM     32  C   UNL     1     -31.370   6.962   8.002  1.00  0.00    +0.015 A 
ATOM     33  C   UNL     1     -33.261   5.582   7.383  1.00  0.00    +0.015 A 
ATOM     34  C   UNL     1     -31.530   7.701   6.827  1.00  0.00    +0.001 A 
ATOM     35  C   UNL     1     -33.415   6.322   6.208  1.00  0.00    +0.001 A 
ATOM     36  C   UNL     1     -32.551   7.380   5.933  1.00  0.00    +0.000 A 
ENDBRANCH  29  31
ENDBRANCH  28  29
ENDBRANCH   7  28
ENDBRANCH   1   2
BRANCH   1  37
ATOM     37  O   UNL     1     -34.337   2.554  10.166  1.00  0.00    -0.263 OA
BRANCH  37  38
ATOM     38  S   UNL     1     -35.638   3.257   9.484  1.00  0.00    +0.297 S 
ATOM     39  O   UNL     1     -35.670   2.908   8.076  1.00  0.00    -0.194 OA
ATOM     40  O   UNL     1     -35.670   4.643   9.904  1.00  0.00    -0.194 OA
BRANCH  38  41
ATOM     41  C   UNL     1     -37.006   2.445  10.279  1.00  0.00    +0.094 A 
ATOM     42  C   UNL     1     -36.906   1.106  10.663  1.00  0.00    +0.023 A 
ATOM     43  C   UNL     1     -38.186   3.164  10.487  1.00  0.00    +0.023 A 
ATOM     44  C   UNL     1     -37.998   0.486  11.272  1.00  0.00    +0.005 A 
ATOM     45  C   UNL     1     -39.274   2.535  11.095  1.00  0.00    +0.005 A 
ATOM     46  C   UNL     1     -39.186   1.197  11.501  1.00  0.00    -0.051 A 
ATOM     47  C   UNL     1     -40.367   0.506  12.120  1.00  0.00    +0.044 C 
ENDBRANCH  38  41
ENDBRANCH  37  38
ENDBRANCH   1  37
TORSDOF 14
ENDMDL
MODEL 8
REMARK VINA RESULT:    -9.186      3.673      8.444
REMARK INTER + INTRA:         -19.427
REMARK INTER:                 -17.169
REMARK INTRA:                  -2.258
REMARK UNBOUND:                -2.722
REMARK SMILES CO[C@H]1O[C@H](COS(=O)(=O)c2ccc(C)cc2)[C@H](OC(=O)c2ccccc2)[C@H](OC(=O)c2ccccc2)[C@H]1OC(=O)c1ccccc1
REMARK SMILES IDX 6 1 5 2 3 3 4 4 38 5 28 6 18 7 2 8 1 9 39 10 40 11 41 12
REMARK SMILES IDX 42 13 43 14 47 15 44 16 46 17 45 18 29 19 30 20 31 21 32 22
REMARK SMILES IDX 33 23 37 24 34 25 36 26 35 27 19 28 20 29 21 30 22 31 23 32
REMARK SMILES IDX 27 33 24 34 26 35 25 36 7 37 8 38 9 39 10 40 11 41 12 42
REMARK SMILES IDX 17 43 13 44 16 45 14 46 15 47
REMARK H PARENT
ROOT
ATOM      1  C   UNL     1     -31.890   4.284   9.170  1.00  0.00    +0.219 C 
ENDROOT
BRANCH   1   2
ATOM      2  C   UNL     1     -32.952   3.312   9.687  1.00  0.00    +0.193 C 
ATOM      3  C   UNL     1     -34.584   1.770   8.875  1.00  0.00    +0.295 C 
ATOM      4  O   UNL     1     -33.379   2.497   8.585  1.00  0.00    -0.339 OA
ATOM      5  C   UNL     1     -34.648   1.251  10.342  1.00  0.00    +0.277 C 
ATOM      6  C   UNL     1     -33.226   1.061  10.877  1.00  0.00    +0.266 C 
ATOM      7  C   UNL     1     -32.449   2.402  10.830  1.00  0.00    +0.253 C 
BRANCH   3   8
ATOM      8  O   UNL     1     -35.737   2.554   8.570  1.00  0.00    -0.352 OA
ATOM      9  C   UNL     1     -35.560   3.351   7.410  1.00  0.00    +0.198 C 
ENDBRANCH   3   8
BRANCH   5  10
ATOM     10  O   UNL     1     -35.321   2.192  11.212  1.00  0.00    -0.449 OA
BRANCH  10  11
ATOM     11  C   UNL     1     -36.669   2.264  11.058  1.00  0.00    +0.338 C 
ATOM     12  O   UNL     1     -37.441   1.318  11.077  1.00  0.00    -0.246 OA
BRANCH  11  13
ATOM     13  C   UNL     1     -37.104   3.676  10.886  1.00  0.00    +0.060 A 
ATOM     14  C   UNL     1     -36.241   4.761  11.100  1.00  0.00    +0.015 A 
ATOM     15  C   UNL     1     -38.426   3.917  10.488  1.00  0.00    +0.015 A 
ATOM     16  C   UNL     1     -36.700   6.068  10.918  1.00  0.00    +0.001 A 
ATOM     17  C   UNL     1     -38.882   5.225  10.310  1.00  0.00    +0.001 A 
ATOM     18  C   UNL     1     -38.018   6.299  10.525  1.00  0.00    +0.000 A 
ENDBRANCH  11  13
ENDBRANCH  10  11
ENDBRANCH   5  10
BRANCH   6  19
ATOM     19  O   UNL     1     -32.590   0.038  10.076  1.00  0.00    -0.450 OA
BRANCH  19  20
ATOM     20  C   UNL     1     -32.281  -1.118  10.717  1.00  0.00    +0.338 C 
ATOM     21  O   UNL     1     -33.082  -1.948  11.119  1.00  0.00    -0.246 OA
BRANCH  20  22
ATOM     22  C   UNL     1     -30.810  -1.243  10.889  1.00  0.00    +0.060 A 
ATOM     23  C   UNL     1     -29.898  -0.845   9.901  1.00  0.00    +0.015 A 
ATOM     24  C   UNL     1     -30.330  -1.778  12.093  1.00  0.00    +0.015 A 
ATOM     25  C   UNL     1     -28.526  -0.987  10.115  1.00  0.00    +0.001 A 
ATOM     26  C   UNL     1     -28.956  -1.916  12.304  1.00  0.00    +0.001 A 
ATOM     27  C   UNL     1     -28.056  -1.524  11.314  1.00  0.00    +0.000 A 
ENDBRANCH  20  22
ENDBRANCH  19  20
ENDBRANCH   6  19
BRANCH   7  28
ATOM     28  O   UNL     1     -31.040   2.116  10.683  1.00  0.00    -0.452 OA
BRANCH  28  29
ATOM     29  C   UNL     1     -30.342   1.840  11.810  1.00  0.00    +0.338 C 
ATOM     30  O   UNL     1     -30.822   1.452  12.864  1.00  0.00    -0.246 OA
BRANCH  29  31
ATOM     31  C   UNL     1     -28.892   2.103  11.604  1.00  0.00    +0.060 A 
ATOM     32  C   UNL     1     -28.381   2.587  10.392  1.00  0.00    +0.015 A 
ATOM     33  C   UNL     1     -28.018   1.862  12.674  1.00  0.00    +0.015 A 
ATOM     34  C   UNL     1     -27.009   2.820  10.253  1.00  0.00    +0.001 A 
ATOM     35  C   UNL     1     -26.650   2.099  12.532  1.00  0.00    +0.001 A 
ATOM     36  C   UNL     1     -26.148   2.576  11.322  1.00  0.00    +0.000 A 
ENDBRANCH  29  31
ENDBRANCH  28  29
ENDBRANCH   7  28
ENDBRANCH   1   2
BRANCH   1  37
ATOM     37  O   UNL     1     -32.416   5.607   9.233  1.00  0.00    -0.263 OA
BRANCH  37  38
ATOM     38  S   UNL     1     -32.994   6.276   7.865  1.00  0.00    +0.297 S 
ATOM     39  O   UNL     1     -34.301   6.841   8.140  1.00  0.00    -0.194 OA
ATOM     40  O   UNL     1     -32.811   5.323   6.789  1.00  0.00    -0.194 OA
BRANCH  38  41
ATOM     41  C   UNL     1     -31.871   7.621   7.561  1.00  0.00    +0.094 A 
ATOM     42  C   UNL     1     -30.492   7.402   7.560  1.00  0.00    +0.023 A 
ATOM     43  C   UNL     1     -32.394   8.899   7.349  1.00  0.00    +0.023 A 
ATOM     44  C   UNL     1     -29.629   8.476   7.333  1.00  0.00    +0.005 A 
ATOM     45  C   UNL     1     -31.525   9.968   7.124  1.00  0.00    +0.005 A 
ATOM     46  C   UNL     1     -30.138   9.764   7.105  1.00  0.00    -0.051 A 
ATOM     47  C   UNL     1     -29.199  10.918   6.903  1.00  0.00    +0.044 C 
ENDBRANCH  38  41
ENDBRANCH  37  38
ENDBRANCH   1  37
TORSDOF 14
ENDMDL
MODEL 9
REMARK VINA RESULT:    -9.040      3.858      7.698
REMARK INTER + INTRA:         -19.161
REMARK INTER:                 -16.716
REMARK INTRA:                  -2.445
REMARK UNBOUND:                -2.722
REMARK SMILES CO[C@H]1O[C@H](COS(=O)(=O)c2ccc(C)cc2)[C@H](OC(=O)c2ccccc2)[C@H](OC(=O)c2ccccc2)[C@H]1OC(=O)c1ccccc1
REMARK SMILES IDX 6 1 5 2 3 3 4 4 38 5 28 6 18 7 2 8 1 9 39 10 40 11 41 12
REMARK SMILES IDX 42 13 43 14 47 15 44 16 46 17 45 18 29 19 30 20 31 21 32 22
REMARK SMILES IDX 33 23 37 24 34 25 36 26 35 27 19 28 20 29 21 30 22 31 23 32
REMARK SMILES IDX 27 33 24 34 26 35 25 36 7 37 8 38 9 39 10 40 11 41 12 42
REMARK SMILES IDX 17 43 13 44 16 45 14 46 15 47
REMARK H PARENT
ROOT
ATOM      1  C   UNL     1     -33.594   0.852   9.971  1.00  0.00    +0.219 C 
ENDROOT
BRANCH   1   2
ATOM      2  C   UNL     1     -32.426   0.494  10.892  1.00  0.00    +0.193 C 
ATOM      3  C   UNL     1     -31.033  -1.361  11.457  1.00  0.00    +0.295 C 
ATOM      4  O   UNL     1     -31.916  -0.784  10.482  1.00  0.00    -0.339 OA
ATOM      5  C   UNL     1     -30.121  -0.308  12.156  1.00  0.00    +0.277 C 
ATOM      6  C   UNL     1     -29.916   0.887  11.222  1.00  0.00    +0.266 C 
ATOM      7  C   UNL     1     -31.282   1.532  10.866  1.00  0.00    +0.253 C 
BRANCH   3   8
ATOM      8  O   UNL     1     -31.766  -2.111  12.426  1.00  0.00    -0.352 OA
ATOM      9  C   UNL     1     -32.521  -3.160  11.842  1.00  0.00    +0.198 C 
ENDBRANCH   3   8
BRANCH   5  10
ATOM     10  O   UNL     1     -30.718   0.187  13.378  1.00  0.00    -0.449 OA
BRANCH  10  11
ATOM     11  C   UNL     1     -29.854   0.387  14.407  1.00  0.00    +0.338 C 
ATOM     12  O   UNL     1     -29.137   1.364  14.557  1.00  0.00    -0.246 OA
BRANCH  11  13
ATOM     13  C   UNL     1     -29.911  -0.746  15.369  1.00  0.00    +0.060 A 
ATOM     14  C   UNL     1     -30.667  -1.903  15.126  1.00  0.00    +0.015 A 
ATOM     15  C   UNL     1     -29.170  -0.645  16.555  1.00  0.00    +0.015 A 
ATOM     16  C   UNL     1     -30.679  -2.941  16.062  1.00  0.00    +0.001 A 
ATOM     17  C   UNL     1     -29.188  -1.683  17.488  1.00  0.00    +0.001 A 
ATOM     18  C   UNL     1     -29.942  -2.830  17.241  1.00  0.00    +0.000 A 
ENDBRANCH  11  13
ENDBRANCH  10  11
ENDBRANCH   5  10
BRANCH   6  19
ATOM     19  O   UNL     1     -29.219   0.411  10.047  1.00  0.00    -0.450 OA
BRANCH  19  20
ATOM     20  C   UNL     1     -27.885   0.204  10.187  1.00  0.00    +0.338 C 
ATOM     21  O   UNL     1     -27.323  -0.880  10.159  1.00  0.00    -0.246 OA
BRANCH  20  22
ATOM     22  C   UNL     1     -27.176   1.492  10.402  1.00  0.00    +0.060 A 
ATOM     23  C   UNL     1     -26.586   2.213   9.354  1.00  0.00    +0.015 A 
ATOM     24  C   UNL     1     -27.106   1.998  11.709  1.00  0.00    +0.015 A 
ATOM     25  C   UNL     1     -25.931   3.418   9.613  1.00  0.00    +0.001 A 
ATOM     26  C   UNL     1     -26.451   3.204  11.963  1.00  0.00    +0.001 A 
ATOM     27  C   UNL     1     -25.861   3.911  10.917  1.00  0.00    +0.000 A 
ENDBRANCH  20  22
ENDBRANCH  19  20
ENDBRANCH   6  19
BRANCH   7  28
ATOM     28  O   UNL     1     -31.175   2.153   9.564  1.00  0.00    -0.452 OA
BRANCH  28  29
ATOM     29  C   UNL     1     -30.662   3.406   9.516  1.00  0.00    +0.338 C 
ATOM     30  O   UNL     1     -29.552   3.733   9.903  1.00  0.00    -0.246 OA
BRANCH  29  31
ATOM     31  C   UNL     1     -31.657   4.354   8.946  1.00  0.00    +0.060 A 
ATOM     32  C   UNL     1     -32.956   3.960   8.594  1.00  0.00    +0.015 A 
ATOM     33  C   UNL     1     -31.270   5.690   8.768  1.00  0.00    +0.015 A 
ATOM     34  C   UNL     1     -33.852   4.893   8.065  1.00  0.00    +0.001 A 
ATOM     35  C   UNL     1     -32.169   6.619   8.242  1.00  0.00    +0.001 A 
ATOM     36  C   UNL     1     -33.457   6.219   7.890  1.00  0.00    +0.000 A 
ENDBRANCH  29  31
ENDBRANCH  28  29
ENDBRANCH   7  28
ENDBRANCH   1   2
BRANCH   1  37
ATOM     37  O   UNL     1     -34.650   1.384  10.765  1.00  0.00    -0.263 OA
BRANCH  37  38
ATOM     38  S   UNL     1     -36.087   1.667  10.052  1.00  0.00    +0.297 S 
ATOM     39  O   UNL     1     -37.093   0.841  10.691  1.00  0.00    -0.194 OA
ATOM     40  O   UNL     1     -35.892   1.620   8.617  1.00  0.00    -0.194 OA
BRANCH  38  41
ATOM     41  C   UNL     1     -36.426   3.362  10.472  1.00  0.00    +0.094 A 
ATOM     42  C   UNL     1     -37.669   3.926  10.181  1.00  0.00    +0.023 A 
ATOM     43  C   UNL     1     -35.418   4.120  11.075  1.00  0.00    +0.023 A 
ATOM     44  C   UNL     1     -37.907   5.263  10.507  1.00  0.00    +0.005 A 
ATOM     45  C   UNL     1     -35.664   5.456  11.396  1.00  0.00    +0.005 A 
ATOM     46  C   UNL     1     -36.912   6.034  11.125  1.00  0.00    -0.051 A 
ATOM     47  C   UNL     1     -37.166   7.482  11.433  1.00  0.00    +0.044 C 
ENDBRANCH  38  41
ENDBRANCH  37  38
ENDBRANCH   1  37
TORSDOF 14
ENDMDL
