REMARK SMILES O=C(O)C=Cc1ccc(Cl)cc1
REMARK SMILES IDX 2 1 1 2 3 3 4 5 5 6 6 7 7 8 12 9 8 10 11 11 9 12 10 13
REMARK H PARENT 3 4
ROOT
ATOM      1  C   UNL     1      -3.446  -0.331  -0.134  1.00  0.00    +0.328 C 
ATOM      2  O   UNL     1      -4.314  -1.121   0.193  1.00  0.00    -0.247 OA
ENDROOT
BRANCH   1   3
ATOM      3  O   UNL     1      -3.737   0.810  -0.775  1.00  0.00    -0.478 OA
ATOM      4  H   UNL     1      -4.712   0.783  -0.867  1.00  0.00    +0.297 HD
ENDBRANCH   1   3
BRANCH   1   5
ATOM      5  C   UNL     1      -2.012  -0.524   0.125  1.00  0.00    +0.094 C 
ATOM      6  C   UNL     1      -1.065   0.351  -0.247  1.00  0.00    +0.015 C 
BRANCH   6   7
ATOM      7  C   UNL     1       0.368   0.169   0.018  1.00  0.00    -0.025 A 
ATOM      8  C   UNL     1       1.150   1.297   0.301  1.00  0.00    +0.009 A 
ATOM      9  C   UNL     1       0.992  -1.085  -0.055  1.00  0.00    +0.009 A 
ATOM     10  C   UNL     1       2.523   1.173   0.534  1.00  0.00    +0.021 A 
ATOM     11  C   UNL     1       2.365  -1.211   0.177  1.00  0.00    +0.021 A 
ATOM     12  C   UNL     1       3.124  -0.082   0.473  1.00  0.00    +0.041 A 
ATOM     13 Cl   UNL     1       4.814  -0.236   0.758  1.00  0.00    -0.084 Cl
ENDBRANCH   6   7
ENDBRANCH   1   5
TORSDOF 3
