MODEL 1
REMARK VINA RESULT:    -5.557      0.000      0.000
REMARK INTER + INTRA:          -5.719
REMARK INTER:                  -5.719
REMARK INTRA:                   0.000
REMARK UNBOUND:                 0.000
REMARK SMILES Cc1ccnc(N)c1
REMARK SMILES IDX 1 1 2 2 8 3 6 4 5 5 4 6 3 7 7 8
REMARK H PARENT 7 9 7 10
ROOT
ATOM      1  C   UNL     1     -31.191  11.038   7.714  1.00  0.00    +0.044 C 
ATOM      2  C   UNL     1     -29.908  11.166   6.952  1.00  0.00    -0.046 A 
ATOM      3  C   UNL     1     -29.642  12.303   6.182  1.00  0.00    +0.050 A 
ATOM      4  C   UNL     1     -28.427  12.409   5.510  1.00  0.00    +0.123 A 
ATOM      5  N   UNL     1     -27.484  11.456   5.579  1.00  0.00    -0.240 NA
ATOM      6  C   UNL     1     -27.747  10.371   6.336  1.00  0.00    +0.114 A 
ATOM      7  C   UNL     1     -28.926  10.182   7.038  1.00  0.00    +0.023 A 
ENDROOT
BRANCH   4   8
ATOM      8  N   UNL     1     -28.153  13.539   4.733  1.00  0.00    -0.384 N 
ATOM      9  H   UNL     1     -28.318  13.325   3.756  1.00  0.00    +0.158 HD
ATOM     10  H   UNL     1     -28.776  14.293   5.005  1.00  0.00    +0.158 HD
ENDBRANCH   4   8
TORSDOF 1
ENDMDL
MODEL 2
REMARK VINA RESULT:    -5.334      1.199      2.358
REMARK INTER + INTRA:          -5.489
REMARK INTER:                  -5.489
REMARK INTRA:                   0.000
REMARK UNBOUND:                 0.000
REMARK SMILES Cc1ccnc(N)c1
REMARK SMILES IDX 1 1 2 2 8 3 6 4 5 5 4 6 3 7 7 8
REMARK H PARENT 7 9 7 10
ROOT
ATOM      1  C   UNL     1     -29.575   9.649   7.032  1.00  0.00    +0.044 C 
ATOM      2  C   UNL     1     -28.799  10.751   6.378  1.00  0.00    -0.046 A 
ATOM      3  C   UNL     1     -27.454  10.577   6.039  1.00  0.00    +0.050 A 
ATOM      4  C   UNL     1     -26.766  11.607   5.403  1.00  0.00    +0.123 A 
ATOM      5  N   UNL     1     -27.352  12.773   5.089  1.00  0.00    -0.240 NA
ATOM      6  C   UNL     1     -28.654  12.924   5.408  1.00  0.00    +0.114 A 
ATOM      7  C   UNL     1     -29.415  11.955   6.040  1.00  0.00    +0.023 A 
ENDROOT
BRANCH   4   8
ATOM      8  N   UNL     1     -25.419  11.444   5.064  1.00  0.00    -0.384 N 
ATOM      9  H   UNL     1     -25.307  10.593   4.525  1.00  0.00    +0.158 HD
ATOM     10  H   UNL     1     -25.118  12.227   4.493  1.00  0.00    +0.158 HD
ENDBRANCH   4   8
TORSDOF 1
ENDMDL
MODEL 3
REMARK VINA RESULT:    -5.160      1.162      2.561
REMARK INTER + INTRA:          -5.311
REMARK INTER:                  -5.311
REMARK INTRA:                   0.000
REMARK UNBOUND:                 0.000
REMARK SMILES Cc1ccnc(N)c1
REMARK SMILES IDX 1 1 2 2 8 3 6 4 5 5 4 6 3 7 7 8
REMARK H PARENT 7 9 7 10
ROOT
ATOM      1  C   UNL     1     -26.442   9.175   5.929  1.00  0.00    +0.044 C 
ATOM      2  C   UNL     1     -27.494  10.233   6.060  1.00  0.00    -0.046 A 
ATOM      3  C   UNL     1     -27.387  11.441   5.363  1.00  0.00    +0.050 A 
ATOM      4  C   UNL     1     -28.395  12.393   5.479  1.00  0.00    +0.123 A 
ATOM      5  N   UNL     1     -29.485  12.194   6.236  1.00  0.00    -0.240 NA
ATOM      6  C   UNL     1     -29.584  11.020   6.893  1.00  0.00    +0.114 A 
ATOM      7  C   UNL     1     -28.631  10.017   6.835  1.00  0.00    +0.023 A 
ENDROOT
BRANCH   4   8
ATOM      8  N   UNL     1     -28.295  13.606   4.790  1.00  0.00    -0.384 N 
ATOM      9  H   UNL     1     -28.892  14.297   5.233  1.00  0.00    +0.158 HD
ATOM     10  H   UNL     1     -27.337  13.938   4.830  1.00  0.00    +0.158 HD
ENDBRANCH   4   8
TORSDOF 1
ENDMDL
MODEL 4
REMARK VINA RESULT:    -4.934      2.762      4.005
REMARK INTER + INTRA:          -5.078
REMARK INTER:                  -5.078
REMARK INTRA:                   0.000
REMARK UNBOUND:                 0.000
REMARK SMILES Cc1ccnc(N)c1
REMARK SMILES IDX 1 1 2 2 8 3 6 4 5 5 4 6 3 7 7 8
REMARK H PARENT 7 9 7 10
ROOT
ATOM      1  C   UNL     1     -29.080   8.485   7.267  1.00  0.00    +0.044 C 
ATOM      2  C   UNL     1     -27.770   9.051   6.811  1.00  0.00    -0.046 A 
ATOM      3  C   UNL     1     -26.586   8.320   6.952  1.00  0.00    +0.050 A 
ATOM      4  C   UNL     1     -25.388   8.858   6.490  1.00  0.00    +0.123 A 
ATOM      5  N   UNL     1     -25.322  10.061   5.899  1.00  0.00    -0.240 NA
ATOM      6  C   UNL     1     -26.473  10.750   5.757  1.00  0.00    +0.114 A 
ATOM      7  C   UNL     1     -27.708  10.294   6.185  1.00  0.00    +0.023 A 
ENDROOT
BRANCH   4   8
ATOM      8  N   UNL     1     -24.197   8.137   6.630  1.00  0.00    -0.384 N 
ATOM      9  H   UNL     1     -24.236   7.305   6.051  1.00  0.00    +0.158 HD
ATOM     10  H   UNL     1     -23.419   8.708   6.318  1.00  0.00    +0.158 HD
ENDBRANCH   4   8
TORSDOF 1
ENDMDL
MODEL 5
REMARK VINA RESULT:    -4.897      2.533      3.218
REMARK INTER + INTRA:          -5.040
REMARK INTER:                  -5.040
REMARK INTRA:                   0.000
REMARK UNBOUND:                 0.000
REMARK SMILES Cc1ccnc(N)c1
REMARK SMILES IDX 1 1 2 2 8 3 6 4 5 5 4 6 3 7 7 8
REMARK H PARENT 7 9 7 10
ROOT
ATOM      1  C   UNL     1     -29.143   8.809   7.035  1.00  0.00    +0.044 C 
ATOM      2  C   UNL     1     -27.700   8.982   6.671  1.00  0.00    -0.046 A 
ATOM      3  C   UNL     1     -27.238  10.183   6.123  1.00  0.00    +0.050 A 
ATOM      4  C   UNL     1     -25.885  10.326   5.825  1.00  0.00    +0.123 A 
ATOM      5  N   UNL     1     -24.994   9.350   6.053  1.00  0.00    -0.240 NA
ATOM      6  C   UNL     1     -25.449   8.201   6.594  1.00  0.00    +0.114 A 
ATOM      7  C   UNL     1     -26.775   7.971   6.922  1.00  0.00    +0.023 A 
ENDROOT
BRANCH   4   8
ATOM      8  N   UNL     1     -25.414  11.521   5.272  1.00  0.00    -0.384 N 
ATOM      9  H   UNL     1     -26.200  12.110   5.021  1.00  0.00    +0.158 HD
ATOM     10  H   UNL     1     -24.853  12.013   5.961  1.00  0.00    +0.158 HD
ENDBRANCH   4   8
TORSDOF 1
ENDMDL
MODEL 6
REMARK VINA RESULT:    -4.433      3.518      4.684
REMARK INTER + INTRA:          -4.562
REMARK INTER:                  -4.562
REMARK INTRA:                   0.000
REMARK UNBOUND:                 0.000
REMARK SMILES Cc1ccnc(N)c1
REMARK SMILES IDX 1 1 2 2 8 3 6 4 5 5 4 6 3 7 7 8
REMARK H PARENT 7 9 7 10
ROOT
ATOM      1  C   UNL     1     -26.939   5.962   8.071  1.00  0.00    +0.044 C 
ATOM      2  C   UNL     1     -26.304   7.113   7.354  1.00  0.00    -0.046 A 
ATOM      3  C   UNL     1     -27.065   8.214   6.951  1.00  0.00    +0.050 A 
ATOM      4  C   UNL     1     -26.442   9.284   6.314  1.00  0.00    +0.123 A 
ATOM      5  N   UNL     1     -25.122   9.307   6.076  1.00  0.00    -0.240 NA
ATOM      6  C   UNL     1     -24.395   8.244   6.481  1.00  0.00    +0.114 A 
ATOM      7  C   UNL     1     -24.930   7.139   7.121  1.00  0.00    +0.023 A 
ENDROOT
BRANCH   4   8
ATOM      8  N   UNL     1     -27.196  10.389   5.902  1.00  0.00    -0.384 N 
ATOM      9  H   UNL     1     -28.169  10.118   5.813  1.00  0.00    +0.158 HD
ATOM     10  H   UNL     1     -27.130  11.121   6.602  1.00  0.00    +0.158 HD
ENDBRANCH   4   8
TORSDOF 1
ENDMDL
MODEL 7
REMARK VINA RESULT:    -4.327      5.507      6.367
REMARK INTER + INTRA:          -4.454
REMARK INTER:                  -4.454
REMARK INTRA:                   0.000
REMARK UNBOUND:                 0.000
REMARK SMILES Cc1ccnc(N)c1
REMARK SMILES IDX 1 1 2 2 8 3 6 4 5 5 4 6 3 7 7 8
REMARK H PARENT 7 9 7 10
ROOT
ATOM      1  C   UNL     1     -32.185   5.535   9.146  1.00  0.00    +0.044 C 
ATOM      2  C   UNL     1     -32.229   6.321   7.872  1.00  0.00    -0.046 A 
ATOM      3  C   UNL     1     -33.234   6.095   6.926  1.00  0.00    +0.050 A 
ATOM      4  C   UNL     1     -33.269   6.863   5.765  1.00  0.00    +0.123 A 
ATOM      5  N   UNL     1     -32.373   7.831   5.518  1.00  0.00    -0.240 NA
ATOM      6  C   UNL     1     -31.417   8.049   6.445  1.00  0.00    +0.114 A 
ATOM      7  C   UNL     1     -31.306   7.335   7.626  1.00  0.00    +0.023 A 
ENDROOT
BRANCH   4   8
ATOM      8  N   UNL     1     -34.267   6.642   4.810  1.00  0.00    -0.384 N 
ATOM      9  H   UNL     1     -34.654   7.531   4.513  1.00  0.00    +0.158 HD
ATOM     10  H   UNL     1     -33.862   6.183   4.000  1.00  0.00    +0.158 HD
ENDBRANCH   4   8
TORSDOF 1
ENDMDL
MODEL 8
REMARK VINA RESULT:    -4.313      5.927      6.932
REMARK INTER + INTRA:          -4.439
REMARK INTER:                  -4.439
REMARK INTRA:                   0.000
REMARK UNBOUND:                 0.000
REMARK SMILES Cc1ccnc(N)c1
REMARK SMILES IDX 1 1 2 2 8 3 6 4 5 5 4 6 3 7 7 8
REMARK H PARENT 7 9 7 10
ROOT
ATOM      1  C   UNL     1     -31.177   8.992   6.462  1.00  0.00    +0.044 C 
ATOM      2  C   UNL     1     -32.272   7.977   6.343  1.00  0.00    -0.046 A 
ATOM      3  C   UNL     1     -33.151   7.743   7.405  1.00  0.00    +0.050 A 
ATOM      4  C   UNL     1     -34.180   6.817   7.254  1.00  0.00    +0.123 A 
ATOM      5  N   UNL     1     -34.370   6.136   6.114  1.00  0.00    -0.240 NA
ATOM      6  C   UNL     1     -33.524   6.380   5.091  1.00  0.00    +0.114 A 
ATOM      7  C   UNL     1     -32.476   7.283   5.152  1.00  0.00    +0.023 A 
ENDROOT
BRANCH   4   8
ATOM      8  N   UNL     1     -35.061   6.572   8.312  1.00  0.00    -0.384 N 
ATOM      9  H   UNL     1     -36.009   6.518   7.956  1.00  0.00    +0.158 HD
ATOM     10  H   UNL     1     -34.830   5.683   8.744  1.00  0.00    +0.158 HD
ENDBRANCH   4   8
TORSDOF 1
ENDMDL
MODEL 9
REMARK VINA RESULT:    -4.304      9.174     10.474
REMARK INTER + INTRA:          -4.430
REMARK INTER:                  -4.430
REMARK INTRA:                   0.000
REMARK UNBOUND:                 0.000
REMARK SMILES Cc1ccnc(N)c1
REMARK SMILES IDX 1 1 2 2 8 3 6 4 5 5 4 6 3 7 7 8
REMARK H PARENT 7 9 7 10
ROOT
ATOM      1  C   UNL     1     -22.820   2.176  11.044  1.00  0.00    +0.044 C 
ATOM      2  C   UNL     1     -24.181   2.370  10.447  1.00  0.00    -0.046 A 
ATOM      3  C   UNL     1     -24.736   3.649  10.331  1.00  0.00    +0.050 A 
ATOM      4  C   UNL     1     -25.988   3.803   9.743  1.00  0.00    +0.123 A 
ATOM      5  N   UNL     1     -26.691   2.763   9.269  1.00  0.00    -0.240 NA
ATOM      6  C   UNL     1     -26.139   1.536   9.374  1.00  0.00    +0.114 A 
ATOM      7  C   UNL     1     -24.900   1.290   9.943  1.00  0.00    +0.023 A 
ENDROOT
BRANCH   4   8
ATOM      8  N   UNL     1     -26.554   5.077   9.627  1.00  0.00    -0.384 N 
ATOM      9  H   UNL     1     -27.297   5.180  10.310  1.00  0.00    +0.158 HD
ATOM     10  H   UNL     1     -25.846   5.779   9.815  1.00  0.00    +0.158 HD
ENDBRANCH   4   8
TORSDOF 1
ENDMDL
