MODEL 1
REMARK VINA RESULT:    -7.436      0.000      0.000
REMARK INTER + INTRA:         -10.495
REMARK INTER:                 -10.044
REMARK INTRA:                  -0.451
REMARK UNBOUND:                -0.451
REMARK SMILES Cc1nc(C)c(CCNCCc2sc(C)nc2C)s1
REMARK SMILES IDX 9 1 8 3 7 4 6 5 2 6 3 7 19 8 4 9 1 10 5 11 10 12 11 13 12 14
REMARK SMILES IDX 17 15 13 16 16 17 14 18 18 19 15 20
REMARK H PARENT 9 2
ROOT
ATOM      1  N   UNL     1     -26.450   4.887   9.741  1.00  0.00    -0.316 NA
ATOM      2  H   UNL     1     -26.907   5.679  10.194  1.00  0.00    +0.122 HD
ENDROOT
BRANCH   1   3
ATOM      3  C   UNL     1     -25.371   5.367   8.867  1.00  0.00    +0.086 C 
BRANCH   3   4
ATOM      4  C   UNL     1     -25.802   5.635   7.417  1.00  0.00    +0.064 C 
BRANCH   4   5
ATOM      5  C   UNL     1     -26.063   7.092   7.182  1.00  0.00    +0.029 A 
ATOM      6  C   UNL     1     -25.933   9.436   6.585  1.00  0.00    +0.090 A 
ATOM      7  N   UNL     1     -27.106   9.179   7.119  1.00  0.00    -0.247 NA
ATOM      8  S   UNL     1     -24.870   8.095   6.465  1.00  0.00    -0.124 S 
ATOM      9  C   UNL     1     -27.195   7.841   7.463  1.00  0.00    +0.052 A 
ATOM     10  C   UNL     1     -25.502  10.775   6.101  1.00  0.00    +0.079 C 
ATOM     11  C   UNL     1     -28.456   7.355   8.082  1.00  0.00    +0.068 C 
ENDBRANCH   4   5
ENDBRANCH   3   4
ENDBRANCH   1   3
BRANCH   1  12
ATOM     12  C   UNL     1     -25.985   3.930  10.749  1.00  0.00    +0.086 C 
BRANCH  12  13
ATOM     13  C   UNL     1     -24.575   3.428  10.403  1.00  0.00    +0.064 C 
BRANCH  13  14
ATOM     14  C   UNL     1     -24.549   1.938  10.243  1.00  0.00    +0.029 A 
ATOM     15  C   UNL     1     -23.490   1.057  10.378  1.00  0.00    +0.052 A 
ATOM     16  S   UNL     1     -25.975   1.074   9.833  1.00  0.00    -0.124 S 
ATOM     17  N   UNL     1     -23.812  -0.275  10.167  1.00  0.00    -0.247 NA
ATOM     18  C   UNL     1     -25.086  -0.394   9.869  1.00  0.00    +0.090 A 
ATOM     19  C   UNL     1     -22.083   1.396  10.718  1.00  0.00    +0.068 C 
ATOM     20  C   UNL     1     -25.765  -1.685   9.578  1.00  0.00    +0.079 C 
ENDBRANCH  13  14
ENDBRANCH  12  13
ENDBRANCH   1  12
TORSDOF 6
ENDMDL
MODEL 2
REMARK VINA RESULT:    -7.205      1.494      8.887
REMARK INTER + INTRA:         -10.183
REMARK INTER:                  -9.932
REMARK INTRA:                  -0.251
REMARK UNBOUND:                -0.451
REMARK SMILES Cc1nc(C)c(CCNCCc2sc(C)nc2C)s1
REMARK SMILES IDX 9 1 8 3 7 4 6 5 2 6 3 7 19 8 4 9 1 10 5 11 10 12 11 13 12 14
REMARK SMILES IDX 17 15 13 16 16 17 14 18 18 19 15 20
REMARK H PARENT 9 2
ROOT
ATOM      1  N   UNL     1     -26.759   5.688   9.103  1.00  0.00    -0.316 NA
ATOM      2  H   UNL     1     -27.564   5.067   9.189  1.00  0.00    +0.122 HD
ENDROOT
BRANCH   1   3
ATOM      3  C   UNL     1     -25.520   4.898   9.089  1.00  0.00    +0.086 C 
BRANCH   3   4
ATOM      4  C   UNL     1     -25.192   4.212  10.425  1.00  0.00    +0.064 C 
BRANCH   4   5
ATOM      5  C   UNL     1     -25.153   2.721  10.281  1.00  0.00    +0.029 A 
ATOM      6  C   UNL     1     -25.648   0.388   9.857  1.00  0.00    +0.090 A 
ATOM      7  N   UNL     1     -24.420   0.505  10.312  1.00  0.00    -0.247 NA
ATOM      8  S   UNL     1     -26.516   1.859   9.696  1.00  0.00    -0.124 S 
ATOM      9  C   UNL     1     -24.123   1.835  10.557  1.00  0.00    +0.052 A 
ATOM     10  C   UNL     1     -26.292  -0.901   9.490  1.00  0.00    +0.079 C 
ATOM     11  C   UNL     1     -22.771   2.171  11.076  1.00  0.00    +0.068 C 
ENDBRANCH   4   5
ENDBRANCH   3   4
ENDBRANCH   1   3
BRANCH   1  12
ATOM     12  C   UNL     1     -26.906   6.539   7.919  1.00  0.00    +0.086 C 
BRANCH  12  13
ATOM     13  C   UNL     1     -28.167   7.408   8.036  1.00  0.00    +0.064 C 
BRANCH  13  14
ATOM     14  C   UNL     1     -28.042   8.666   7.232  1.00  0.00    +0.029 A 
ATOM     15  C   UNL     1     -29.009   9.602   6.904  1.00  0.00    +0.052 A 
ATOM     16  S   UNL     1     -26.532   9.133   6.562  1.00  0.00    -0.124 S 
ATOM     17  N   UNL     1     -28.553  10.666   6.144  1.00  0.00    -0.247 NA
ATOM     18  C   UNL     1     -27.269  10.532   5.895  1.00  0.00    +0.090 A 
ATOM     19  C   UNL     1     -30.447   9.570   7.281  1.00  0.00    +0.068 C 
ATOM     20  C   UNL     1     -26.461  11.496   5.100  1.00  0.00    +0.079 C 
ENDBRANCH  13  14
ENDBRANCH  12  13
ENDBRANCH   1  12
TORSDOF 6
ENDMDL
MODEL 3
REMARK VINA RESULT:    -7.185      6.420      9.660
REMARK INTER + INTRA:         -10.156
REMARK INTER:                  -9.761
REMARK INTRA:                  -0.394
REMARK UNBOUND:                -0.451
REMARK SMILES Cc1nc(C)c(CCNCCc2sc(C)nc2C)s1
REMARK SMILES IDX 9 1 8 3 7 4 6 5 2 6 3 7 19 8 4 9 1 10 5 11 10 12 11 13 12 14
REMARK SMILES IDX 17 15 13 16 16 17 14 18 18 19 15 20
REMARK H PARENT 9 2
ROOT
ATOM      1  N   UNL     1     -31.772  10.205   6.141  1.00  0.00    -0.316 NA
ATOM      2  H   UNL     1     -31.100   9.864   5.453  1.00  0.00    +0.122 HD
ENDROOT
BRANCH   1   3
ATOM      3  C   UNL     1     -32.039   9.160   7.138  1.00  0.00    +0.086 C 
BRANCH   3   4
ATOM      4  C   UNL     1     -31.824   7.726   6.626  1.00  0.00    +0.064 C 
BRANCH   4   5
ATOM      5  C   UNL     1     -32.668   6.743   7.379  1.00  0.00    +0.029 A 
ATOM      6  C   UNL     1     -34.465   5.374   8.253  1.00  0.00    +0.090 A 
ATOM      7  N   UNL     1     -33.342   5.079   8.870  1.00  0.00    -0.247 NA
ATOM      8  S   UNL     1     -34.346   6.592   7.051  1.00  0.00    -0.124 S 
ATOM      9  C   UNL     1     -32.305   5.854   8.378  1.00  0.00    +0.052 A 
ATOM     10  C   UNL     1     -35.775   4.729   8.534  1.00  0.00    +0.079 C 
ATOM     11  C   UNL     1     -30.948   5.662   8.953  1.00  0.00    +0.068 C 
ENDBRANCH   4   5
ENDBRANCH   3   4
ENDBRANCH   1   3
BRANCH   1  12
ATOM     12  C   UNL     1     -31.291  11.454   6.738  1.00  0.00    +0.086 C 
BRANCH  12  13
ATOM     13  C   UNL     1     -30.085  11.183   7.650  1.00  0.00    +0.064 C 
BRANCH  13  14
ATOM     14  C   UNL     1     -28.892  10.734   6.861  1.00  0.00    +0.029 A 
ATOM     15  C   UNL     1     -28.176  11.410   5.888  1.00  0.00    +0.052 A 
ATOM     16  S   UNL     1     -28.215   9.176   7.103  1.00  0.00    -0.124 S 
ATOM     17  N   UNL     1     -27.110  10.703   5.356  1.00  0.00    -0.247 NA
ATOM     18  C   UNL     1     -27.029   9.514   5.910  1.00  0.00    +0.090 A 
ATOM     19  C   UNL     1     -28.436  12.782   5.377  1.00  0.00    +0.068 C 
ATOM     20  C   UNL     1     -26.002   8.494   5.568  1.00  0.00    +0.079 C 
ENDBRANCH  13  14
ENDBRANCH  12  13
ENDBRANCH   1  12
TORSDOF 6
ENDMDL
MODEL 4
REMARK VINA RESULT:    -7.078      6.899     10.653
REMARK INTER + INTRA:         -10.012
REMARK INTER:                  -9.727
REMARK INTRA:                  -0.285
REMARK UNBOUND:                -0.451
REMARK SMILES Cc1nc(C)c(CCNCCc2sc(C)nc2C)s1
REMARK SMILES IDX 9 1 8 3 7 4 6 5 2 6 3 7 19 8 4 9 1 10 5 11 10 12 11 13 12 14
REMARK SMILES IDX 17 15 13 16 16 17 14 18 18 19 15 20
REMARK H PARENT 9 2
ROOT
ATOM      1  N   UNL     1     -33.337   7.987   7.342  1.00  0.00    -0.316 NA
ATOM      2  H   UNL     1     -34.138   8.566   7.090  1.00  0.00    +0.122 HD
ENDROOT
BRANCH   1   3
ATOM      3  C   UNL     1     -33.587   6.593   6.951  1.00  0.00    +0.086 C 
BRANCH   3   4
ATOM      4  C   UNL     1     -34.977   6.066   7.341  1.00  0.00    +0.064 C 
BRANCH   4   5
ATOM      5  C   UNL     1     -34.937   5.324   8.643  1.00  0.00    +0.029 A 
ATOM      6  C   UNL     1     -34.381   3.886  10.511  1.00  0.00    +0.090 A 
ATOM      7  N   UNL     1     -35.481   4.554  10.778  1.00  0.00    -0.247 NA
ATOM      8  S   UNL     1     -33.677   4.209   8.980  1.00  0.00    -0.124 S 
ATOM      9  C   UNL     1     -35.810   5.382   9.718  1.00  0.00    +0.052 A 
ATOM     10  C   UNL     1     -33.745   2.908  11.433  1.00  0.00    +0.079 C 
ATOM     11  C   UNL     1     -37.029   6.225   9.834  1.00  0.00    +0.068 C 
ENDBRANCH   4   5
ENDBRANCH   3   4
ENDBRANCH   1   3
BRANCH   1  12
ATOM     12  C   UNL     1     -32.114   8.535   6.747  1.00  0.00    +0.086 C 
BRANCH  12  13
ATOM     13  C   UNL     1     -31.430   9.502   7.725  1.00  0.00    +0.064 C 
BRANCH  13  14
ATOM     14  C   UNL     1     -30.267  10.197   7.083  1.00  0.00    +0.029 A 
ATOM     15  C   UNL     1     -28.965   9.759   6.913  1.00  0.00    +0.052 A 
ATOM     16  S   UNL     1     -30.441  11.771   6.421  1.00  0.00    -0.124 S 
ATOM     17  N   UNL     1     -28.131  10.656   6.264  1.00  0.00    -0.247 NA
ATOM     18  C   UNL     1     -28.789  11.752   5.959  1.00  0.00    +0.090 A 
ATOM     19  C   UNL     1     -28.395   8.456   7.348  1.00  0.00    +0.068 C 
ATOM     20  C   UNL     1     -28.195  12.923   5.261  1.00  0.00    +0.079 C 
ENDBRANCH  13  14
ENDBRANCH  12  13
ENDBRANCH   1  12
TORSDOF 6
ENDMDL
MODEL 5
REMARK VINA RESULT:    -6.890      2.189      2.978
REMARK INTER + INTRA:          -9.757
REMARK INTER:                  -9.538
REMARK INTRA:                  -0.219
REMARK UNBOUND:                -0.451
REMARK SMILES Cc1nc(C)c(CCNCCc2sc(C)nc2C)s1
REMARK SMILES IDX 9 1 8 3 7 4 6 5 2 6 3 7 19 8 4 9 1 10 5 11 10 12 11 13 12 14
REMARK SMILES IDX 17 15 13 16 16 17 14 18 18 19 15 20
REMARK H PARENT 9 2
ROOT
ATOM      1  N   UNL     1     -25.606   6.545   8.058  1.00  0.00    -0.316 NA
ATOM      2  H   UNL     1     -24.701   6.570   7.587  1.00  0.00    +0.122 HD
ENDROOT
BRANCH   1   3
ATOM      3  C   UNL     1     -26.618   7.213   7.229  1.00  0.00    +0.086 C 
BRANCH   3   4
ATOM      4  C   UNL     1     -26.136   8.512   6.563  1.00  0.00    +0.064 C 
BRANCH   4   5
ATOM      5  C   UNL     1     -27.233   9.529   6.485  1.00  0.00    +0.029 A 
ATOM      6  C   UNL     1     -29.319  10.752   6.642  1.00  0.00    +0.090 A 
ATOM      7  N   UNL     1     -28.419  11.487   6.026  1.00  0.00    -0.247 NA
ATOM      8  S   UNL     1     -28.784   9.200   7.141  1.00  0.00    -0.124 S 
ATOM      9  C   UNL     1     -27.220  10.799   5.932  1.00  0.00    +0.052 A 
ATOM     10  C   UNL     1     -30.715  11.183   6.914  1.00  0.00    +0.079 C 
ATOM     11  C   UNL     1     -26.074  11.472   5.266  1.00  0.00    +0.068 C 
ENDBRANCH   4   5
ENDBRANCH   3   4
ENDBRANCH   1   3
BRANCH   1  12
ATOM     12  C   UNL     1     -25.963   5.163   8.390  1.00  0.00    +0.086 C 
BRANCH  12  13
ATOM     13  C   UNL     1     -25.133   4.667   9.584  1.00  0.00    +0.064 C 
BRANCH  13  14
ATOM     14  C   UNL     1     -25.337   3.202   9.822  1.00  0.00    +0.029 A 
ATOM     15  C   UNL     1     -24.505   2.286  10.442  1.00  0.00    +0.052 A 
ATOM     16  S   UNL     1     -26.773   2.419   9.299  1.00  0.00    -0.124 S 
ATOM     17  N   UNL     1     -25.005   0.995  10.504  1.00  0.00    -0.247 NA
ATOM     18  C   UNL     1     -26.187   0.936   9.933  1.00  0.00    +0.090 A 
ATOM     19  C   UNL     1     -23.165   2.551  11.031  1.00  0.00    +0.068 C 
ATOM     20  C   UNL     1     -27.006  -0.300   9.819  1.00  0.00    +0.079 C 
ENDBRANCH  13  14
ENDBRANCH  12  13
ENDBRANCH   1  12
TORSDOF 6
ENDMDL
MODEL 6
REMARK VINA RESULT:    -6.639      6.843     10.537
REMARK INTER + INTRA:          -9.418
REMARK INTER:                  -9.178
REMARK INTRA:                  -0.240
REMARK UNBOUND:                -0.451
REMARK SMILES Cc1nc(C)c(CCNCCc2sc(C)nc2C)s1
REMARK SMILES IDX 9 1 8 3 7 4 6 5 2 6 3 7 19 8 4 9 1 10 5 11 10 12 11 13 12 14
REMARK SMILES IDX 17 15 13 16 16 17 14 18 18 19 15 20
REMARK H PARENT 9 2
ROOT
ATOM      1  N   UNL     1     -33.124   6.683   8.069  1.00  0.00    -0.316 NA
ATOM      2  H   UNL     1     -33.988   6.532   7.547  1.00  0.00    +0.122 HD
ENDROOT
BRANCH   1   3
ATOM      3  C   UNL     1     -32.699   5.429   8.704  1.00  0.00    +0.086 C 
BRANCH   3   4
ATOM      4  C   UNL     1     -33.776   4.332   8.723  1.00  0.00    +0.064 C 
BRANCH   4   5
ATOM      5  C   UNL     1     -34.995   4.774   9.475  1.00  0.00    +0.029 A 
ATOM      6  C   UNL     1     -37.227   5.422  10.160  1.00  0.00    +0.090 A 
ATOM      7  N   UNL     1     -36.412   5.486  11.189  1.00  0.00    -0.247 NA
ATOM      8  S   UNL     1     -36.512   4.916   8.684  1.00  0.00    -0.124 S 
ATOM      9  C   UNL     1     -35.131   5.116  10.811  1.00  0.00    +0.052 A 
ATOM     10  C   UNL     1     -38.676   5.750  10.211  1.00  0.00    +0.079 C 
ATOM     11  C   UNL     1     -34.063   5.123  11.844  1.00  0.00    +0.068 C 
ENDBRANCH   4   5
ENDBRANCH   3   4
ENDBRANCH   1   3
BRANCH   1  12
ATOM     12  C   UNL     1     -32.098   7.253   7.189  1.00  0.00    +0.086 C 
BRANCH  12  13
ATOM     13  C   UNL     1     -32.060   8.782   7.330  1.00  0.00    +0.064 C 
BRANCH  13  14
ATOM     14  C   UNL     1     -30.658   9.304   7.234  1.00  0.00    +0.029 A 
ATOM     15  C   UNL     1     -30.205  10.613   7.228  1.00  0.00    +0.052 A 
ATOM     16  S   UNL     1     -29.326   8.229   7.108  1.00  0.00    -0.124 S 
ATOM     17  N   UNL     1     -28.830  10.751   7.133  1.00  0.00    -0.247 NA
ATOM     18  C   UNL     1     -28.257   9.570   7.059  1.00  0.00    +0.090 A 
ATOM     19  C   UNL     1     -31.033  11.846   7.312  1.00  0.00    +0.068 C 
ATOM     20  C   UNL     1     -26.790   9.352   6.943  1.00  0.00    +0.079 C 
ENDBRANCH  13  14
ENDBRANCH  12  13
ENDBRANCH   1  12
TORSDOF 6
ENDMDL
MODEL 7
REMARK VINA RESULT:    -6.628      6.061      8.071
REMARK INTER + INTRA:          -9.404
REMARK INTER:                  -9.104
REMARK INTRA:                  -0.299
REMARK UNBOUND:                -0.451
REMARK SMILES Cc1nc(C)c(CCNCCc2sc(C)nc2C)s1
REMARK SMILES IDX 9 1 8 3 7 4 6 5 2 6 3 7 19 8 4 9 1 10 5 11 10 12 11 13 12 14
REMARK SMILES IDX 17 15 13 16 16 17 14 18 18 19 15 20
REMARK H PARENT 9 2
ROOT
ATOM      1  N   UNL     1     -29.993   5.935   8.781  1.00  0.00    -0.316 NA
ATOM      2  H   UNL     1     -29.734   5.101   8.252  1.00  0.00    +0.122 HD
ENDROOT
BRANCH   1   3
ATOM      3  C   UNL     1     -29.302   7.108   8.232  1.00  0.00    +0.086 C 
BRANCH   3   4
ATOM      4  C   UNL     1     -30.185   8.012   7.358  1.00  0.00    +0.064 C 
BRANCH   4   5
ATOM      5  C   UNL     1     -29.426   9.204   6.858  1.00  0.00    +0.029 A 
ATOM      6  C   UNL     1     -27.792  10.720   5.909  1.00  0.00    +0.090 A 
ATOM      7  N   UNL     1     -28.838  11.399   6.324  1.00  0.00    -0.247 NA
ATOM      8  S   UNL     1     -27.876   9.022   6.145  1.00  0.00    -0.124 S 
ATOM      9  C   UNL     1     -29.782  10.543   6.868  1.00  0.00    +0.052 A 
ATOM     10  C   UNL     1     -26.593  11.326   5.272  1.00  0.00    +0.079 C 
ATOM     11  C   UNL     1     -31.044  11.128   7.393  1.00  0.00    +0.068 C 
ENDBRANCH   4   5
ENDBRANCH   3   4
ENDBRANCH   1   3
BRANCH   1  12
ATOM     12  C   UNL     1     -31.451   6.087   8.799  1.00  0.00    +0.086 C 
BRANCH  12  13
ATOM     13  C   UNL     1     -32.123   4.766   9.202  1.00  0.00    +0.064 C 
BRANCH  13  14
ATOM     14  C   UNL     1     -33.600   4.939   9.390  1.00  0.00    +0.029 A 
ATOM     15  C   UNL     1     -34.586   5.173   8.446  1.00  0.00    +0.052 A 
ATOM     16  S   UNL     1     -34.302   4.858  10.954  1.00  0.00    -0.124 S 
ATOM     17  N   UNL     1     -35.869   5.276   8.959  1.00  0.00    -0.247 NA
ATOM     18  C   UNL     1     -35.850   5.133  10.266  1.00  0.00    +0.090 A 
ATOM     19  C   UNL     1     -34.401   5.317   6.977  1.00  0.00    +0.068 C 
ATOM     20  C   UNL     1     -37.055   5.193  11.136  1.00  0.00    +0.079 C 
ENDBRANCH  13  14
ENDBRANCH  12  13
ENDBRANCH   1  12
TORSDOF 6
ENDMDL
MODEL 8
REMARK VINA RESULT:    -6.524      2.559      3.856
REMARK INTER + INTRA:          -9.263
REMARK INTER:                  -8.935
REMARK INTRA:                  -0.328
REMARK UNBOUND:                -0.451
REMARK SMILES Cc1nc(C)c(CCNCCc2sc(C)nc2C)s1
REMARK SMILES IDX 9 1 8 3 7 4 6 5 2 6 3 7 19 8 4 9 1 10 5 11 10 12 11 13 12 14
REMARK SMILES IDX 17 15 13 16 16 17 14 18 18 19 15 20
REMARK H PARENT 9 2
ROOT
ATOM      1  N   UNL     1     -26.340   6.240   7.125  1.00  0.00    -0.316 NA
ATOM      2  H   UNL     1     -27.017   5.940   6.423  1.00  0.00    +0.122 HD
ENDROOT
BRANCH   1   3
ATOM      3  C   UNL     1     -25.975   7.644   6.899  1.00  0.00    +0.086 C 
BRANCH   3   4
ATOM      4  C   UNL     1     -26.620   8.274   5.654  1.00  0.00    +0.064 C 
BRANCH   4   5
ATOM      5  C   UNL     1     -27.606   9.340   6.027  1.00  0.00    +0.029 A 
ATOM      6  C   UNL     1     -29.489  10.605   6.877  1.00  0.00    +0.090 A 
ATOM      7  N   UNL     1     -28.660  11.410   6.251  1.00  0.00    -0.247 NA
ATOM      8  S   UNL     1     -29.022   8.954   6.916  1.00  0.00    -0.124 S 
ATOM      9  C   UNL     1     -27.577  10.699   5.761  1.00  0.00    +0.052 A 
ATOM     10  C   UNL     1     -30.755  11.037   7.525  1.00  0.00    +0.079 C 
ATOM     11  C   UNL     1     -26.523  11.442   5.021  1.00  0.00    +0.068 C 
ENDBRANCH   4   5
ENDBRANCH   3   4
ENDBRANCH   1   3
BRANCH   1  12
ATOM     12  C   UNL     1     -26.869   5.997   8.470  1.00  0.00    +0.086 C 
BRANCH  12  13
ATOM     13  C   UNL     1     -27.356   4.546   8.601  1.00  0.00    +0.064 C 
BRANCH  13  14
ATOM     14  C   UNL     1     -26.394   3.715   9.394  1.00  0.00    +0.029 A 
ATOM     15  C   UNL     1     -26.584   2.483   9.997  1.00  0.00    +0.052 A 
ATOM     16  S   UNL     1     -24.788   4.253   9.668  1.00  0.00    -0.124 S 
ATOM     17  N   UNL     1     -25.473   1.980  10.654  1.00  0.00    -0.247 NA
ATOM     18  C   UNL     1     -24.467   2.820  10.557  1.00  0.00    +0.090 A 
ATOM     19  C   UNL     1     -27.833   1.674  10.004  1.00  0.00    +0.068 C 
ATOM     20  C   UNL     1     -23.122   2.596  11.152  1.00  0.00    +0.079 C 
ENDBRANCH  13  14
ENDBRANCH  12  13
ENDBRANCH   1  12
TORSDOF 6
ENDMDL
MODEL 9
REMARK VINA RESULT:    -6.403      6.659     10.384
REMARK INTER + INTRA:          -9.100
REMARK INTER:                  -8.700
REMARK INTRA:                  -0.400
REMARK UNBOUND:                -0.451
REMARK SMILES Cc1nc(C)c(CCNCCc2sc(C)nc2C)s1
REMARK SMILES IDX 9 1 8 3 7 4 6 5 2 6 3 7 19 8 4 9 1 10 5 11 10 12 11 13 12 14
REMARK SMILES IDX 17 15 13 16 16 17 14 18 18 19 15 20
REMARK H PARENT 9 2
ROOT
ATOM      1  N   UNL     1     -32.981   1.514   9.563  1.00  0.00    -0.316 NA
ATOM      2  H   UNL     1     -32.939   1.602   8.547  1.00  0.00    +0.122 HD
ENDROOT
BRANCH   1   3
ATOM      3  C   UNL     1     -31.881   0.664  10.036  1.00  0.00    +0.086 C 
BRANCH   3   4
ATOM      4  C   UNL     1     -31.738   0.606  11.565  1.00  0.00    +0.064 C 
BRANCH   4   5
ATOM      5  C   UNL     1     -30.372   1.038  12.006  1.00  0.00    +0.029 A 
ATOM      6  C   UNL     1     -28.111   1.895  12.148  1.00  0.00    +0.090 A 
ATOM      7  N   UNL     1     -28.493   1.456  13.326  1.00  0.00    -0.247 NA
ATOM      8  S   UNL     1     -29.274   1.746  10.895  1.00  0.00    -0.124 S 
ATOM      9  C   UNL     1     -29.787   0.964  13.260  1.00  0.00    +0.052 A 
ATOM     10  C   UNL     1     -26.779   2.490  11.862  1.00  0.00    +0.079 C 
ATOM     11  C   UNL     1     -30.399   0.422  14.501  1.00  0.00    +0.068 C 
ENDBRANCH   4   5
ENDBRANCH   3   4
ENDBRANCH   1   3
BRANCH   1  12
ATOM     12  C   UNL     1     -32.985   2.842  10.183  1.00  0.00    +0.086 C 
BRANCH  12  13
ATOM     13  C   UNL     1     -32.955   3.937   9.106  1.00  0.00    +0.064 C 
BRANCH  13  14
ATOM     14  C   UNL     1     -34.205   4.763   9.131  1.00  0.00    +0.029 A 
ATOM     15  C   UNL     1     -34.722   5.607   8.162  1.00  0.00    +0.052 A 
ATOM     16  S   UNL     1     -35.237   4.753  10.502  1.00  0.00    -0.124 S 
ATOM     17  N   UNL     1     -35.915   6.222   8.505  1.00  0.00    -0.247 NA
ATOM     18  C   UNL     1     -36.286   5.857   9.712  1.00  0.00    +0.090 A 
ATOM     19  C   UNL     1     -34.133   5.905   6.829  1.00  0.00    +0.068 C 
ATOM     20  C   UNL     1     -37.520   6.334  10.393  1.00  0.00    +0.079 C 
ENDBRANCH  13  14
ENDBRANCH  12  13
ENDBRANCH   1  12
TORSDOF 6
ENDMDL
