REMARK SMILES CCCCCCCCCCCC(=O)NN
REMARK SMILES IDX 7 1 6 2 5 3 4 4 3 5 2 6 1 7 8 8 9 9 10 10 11 11 12 12 13 13
REMARK SMILES IDX 14 14 15 16
REMARK H PARENT 14 15 15 17 15 18
ROOT
ATOM      1  C   UNL     1      -0.030  -0.754  -0.644  1.00  0.00    +0.000 C 
ENDROOT
BRANCH   1   2
ATOM      2  C   UNL     1       1.086  -1.161   0.321  1.00  0.00    +0.000 C 
BRANCH   2   3
ATOM      3  C   UNL     1       2.487  -0.779  -0.168  1.00  0.00    -0.000 C 
BRANCH   3   4
ATOM      4  C   UNL     1       2.724   0.732  -0.210  1.00  0.00    -0.000 C 
BRANCH   4   5
ATOM      5  C   UNL     1       4.126   1.113  -0.698  1.00  0.00    -0.000 C 
BRANCH   5   6
ATOM      6  C   UNL     1       5.240   0.708   0.268  1.00  0.00    -0.003 C 
ATOM      7  C   UNL     1       6.594   1.215  -0.204  1.00  0.00    +0.004 C 
ENDBRANCH   5   6
ENDBRANCH   4   5
ENDBRANCH   3   4
ENDBRANCH   2   3
ENDBRANCH   1   2
BRANCH   1   8
ATOM      8  C   UNL     1      -1.391  -1.266  -0.164  1.00  0.00    +0.000 C 
BRANCH   8   9
ATOM      9  C   UNL     1      -2.509  -0.852  -1.124  1.00  0.00    +0.001 C 
BRANCH   9  10
ATOM     10  C   UNL     1      -3.876  -1.446  -0.766  1.00  0.00    +0.010 C 
BRANCH  10  11
ATOM     11  C   UNL     1      -4.447  -0.990   0.577  1.00  0.00    +0.101 C 
BRANCH  11  12
ATOM     12  C   UNL     1      -4.851   0.471   0.600  1.00  0.00    +0.233 C 
ATOM     13  O   UNL     1      -4.933   1.186  -0.395  1.00  0.00    -0.274 OA
ATOM     14  N   UNL     1      -5.155   0.921   1.881  1.00  0.00    -0.294 N 
ATOM     15  H   UNL     1      -5.227   0.265   2.656  1.00  0.00    +0.184 HD
BRANCH  14  16
ATOM     16  N   UNL     1      -5.648   2.232   2.054  1.00  0.00    -0.248 NA
ATOM     17  H   UNL     1      -4.849   2.869   1.977  1.00  0.00    +0.143 HD
ATOM     18  H   UNL     1      -6.200   2.456   1.215  1.00  0.00    +0.143 HD
ENDBRANCH  14  16
ENDBRANCH  11  12
ENDBRANCH  10  11
ENDBRANCH   9  10
ENDBRANCH   8   9
ENDBRANCH   1   8
TORSDOF 11
