REMARK SMILES COc1ccc(CCC(=NO)c2ccccc2)cc1
REMARK SMILES IDX 7 1 6 2 3 3 4 4 19 5 5 6 18 7 2 8 1 9 8 10 9 11 10 12 12 13
REMARK SMILES IDX 13 14 17 15 14 16 16 17 15 18 11 19
REMARK H PARENT 11 20
ROOT
ATOM      1  C   UNL     1      -0.301  -1.845  -1.156  1.00  0.00    +0.042 C 
ENDROOT
BRANCH   1   2
ATOM      2  C   UNL     1       0.938  -1.243  -0.537  1.00  0.00    -0.047 A 
ATOM      3  C   UNL     1       3.249  -0.146   0.652  1.00  0.00    +0.118 A 
ATOM      4  C   UNL     1       3.176  -0.323  -0.730  1.00  0.00    +0.046 A 
ATOM      5  C   UNL     1       2.166  -0.526   1.442  1.00  0.00    +0.046 A 
ATOM      6  C   UNL     1       2.034  -0.870  -1.322  1.00  0.00    +0.007 A 
ATOM      7  C   UNL     1       1.021  -1.074   0.852  1.00  0.00    +0.007 A 
BRANCH   3   8
ATOM      8  O   UNL     1       4.421   0.399   1.099  1.00  0.00    -0.497 OA
ATOM      9  C   UNL     1       4.537   0.610   2.500  1.00  0.00    +0.278 C 
ENDBRANCH   3   8
ENDBRANCH   1   2
BRANCH   1  10
ATOM     10  C   UNL     1      -0.953  -0.999  -2.252  1.00  0.00    +0.065 C 
BRANCH  10  11
ATOM     11  C   UNL     1      -1.369   0.399  -1.805  1.00  0.00    +0.087 C 
ATOM     12  N   UNL     1      -0.955   1.401  -2.527  1.00  0.00    -0.093 NA
BRANCH  11  13
ATOM     13  C   UNL     1      -2.227   0.504  -0.596  1.00  0.00    -0.001 A 
ATOM     14  C   UNL     1      -1.787   1.251   0.501  1.00  0.00    +0.010 A 
ATOM     15  C   UNL     1      -3.445  -0.180  -0.541  1.00  0.00    +0.010 A 
ATOM     16  C   UNL     1      -2.569   1.317   1.654  1.00  0.00    +0.001 A 
ATOM     17  C   UNL     1      -4.224  -0.110   0.614  1.00  0.00    +0.001 A 
ATOM     18  C   UNL     1      -3.785   0.636   1.710  1.00  0.00    +0.000 A 
ENDBRANCH  11  13
BRANCH  12  19
ATOM     19  O   UNL     1      -1.447   2.628  -2.072  1.00  0.00    -0.411 OA
ATOM     20  H   UNL     1      -1.046   3.257  -2.699  1.00  0.00    +0.330 HD
ENDBRANCH  12  19
ENDBRANCH  10  11
ENDBRANCH   1  10
TORSDOF 6
