REMARK SMILES CNC1CCCCC1
REMARK SMILES IDX 1 1 2 2 3 4 4 5 8 6 5 7 7 8 6 9
REMARK H PARENT 2 3
ROOT
ATOM      1  C   UNL     1       1.996  -0.822   1.672  1.00  0.00    +0.101 C 
ATOM      2  N   UNL     1       2.106   0.023   0.493  1.00  0.00    -0.317 NA
ATOM      3  H   UNL     1       2.749  -0.413  -0.168  1.00  0.00    +0.122 HD
ENDROOT
BRANCH   2   4
ATOM      4  C   UNL     1       0.843   0.320  -0.198  1.00  0.00    +0.053 C 
ATOM      5  C   UNL     1      -0.192   1.029   0.692  1.00  0.00    +0.019 C 
ATOM      6  C   UNL     1       0.230  -0.914  -0.883  1.00  0.00    +0.019 C 
ATOM      7  C   UNL     1      -1.448   1.392  -0.101  1.00  0.00    +0.002 C 
ATOM      8  C   UNL     1      -1.030  -0.546  -1.665  1.00  0.00    +0.002 C 
ATOM      9  C   UNL     1      -2.052   0.171  -0.788  1.00  0.00    +0.000 C 
ENDBRANCH   2   4
TORSDOF 1
