REMARK SMILES Cn1ncc2c(NCc3ccccc3)ncnc21
REMARK SMILES IDX 7 1 6 3 2 4 3 5 18 6 4 7 5 8 17 9 16 10 15 11 1 12 8 13 9 14
REMARK SMILES IDX 10 15 14 16 11 17 13 18 12 19
REMARK H PARENT 7 2
ROOT
ATOM      1  N   UNL     1      -0.370  -0.327  -0.066  1.00  0.00    -0.365 N 
ATOM      2  H   UNL     1      -0.545   0.573   0.365  1.00  0.00    +0.162 HD
ENDROOT
BRANCH   1   3
ATOM      3  C   UNL     1       0.958  -0.512  -0.442  1.00  0.00    +0.140 A 
ATOM      4  N   UNL     1       4.125   0.683   0.502  1.00  0.00    -0.250 N 
ATOM      5  N   UNL     1       3.470   1.432   1.420  1.00  0.00    -0.179 NA
ATOM      6  C   UNL     1       3.297  -0.094  -0.263  1.00  0.00    +0.163 A 
ATOM      7  C   UNL     1       2.188   1.101   1.225  1.00  0.00    +0.149 A 
ATOM      8  C   UNL     1       2.013   0.164   0.185  1.00  0.00    +0.081 A 
ATOM      9  N   UNL     1       3.649  -0.939  -1.247  1.00  0.00    -0.217 NA
ATOM     10  C   UNL     1       2.571  -1.544  -1.773  1.00  0.00    +0.226 A 
ATOM     11  N   UNL     1       1.275  -1.380  -1.436  1.00  0.00    -0.219 NA
ATOM     12  C   UNL     1       5.561   0.763   0.417  1.00  0.00    +0.176 C 
ENDBRANCH   1   3
BRANCH   1  13
ATOM     13  C   UNL     1      -1.365  -0.722  -1.048  1.00  0.00    +0.150 C 
BRANCH  13  14
ATOM     14  C   UNL     1      -2.734  -0.329  -0.541  1.00  0.00    -0.029 A 
ATOM     15  C   UNL     1      -3.407   0.778  -1.077  1.00  0.00    +0.005 A 
ATOM     16  C   UNL     1      -3.337  -1.052   0.499  1.00  0.00    +0.005 A 
ATOM     17  C   UNL     1      -4.664   1.145  -0.592  1.00  0.00    +0.000 A 
ATOM     18  C   UNL     1      -4.594  -0.684   0.982  1.00  0.00    +0.000 A 
ATOM     19  C   UNL     1      -5.257   0.413   0.435  1.00  0.00    +0.000 A 
ENDBRANCH  13  14
ENDBRANCH   1  13
TORSDOF 3
