MODEL 1
REMARK VINA RESULT:    -6.410      0.000      0.000
REMARK INTER + INTRA:          -6.597
REMARK INTER:                  -6.597
REMARK INTRA:                   0.000
REMARK UNBOUND:                 0.000
REMARK SMILES Cc1n[nH]c2ncnc(N)c12
REMARK SMILES IDX 1 1 2 2 3 3 4 4 5 5 6 6 7 7 8 8 9 9 11 10 10 12
REMARK H PARENT 4 11 10 13 10 14
ROOT
ATOM      1  C   UNL     1     -28.772  12.441   5.551  1.00  0.00    +0.069 C 
ATOM      2  C   UNL     1     -28.506  11.141   6.213  1.00  0.00    +0.072 A 
ATOM      3  N   UNL     1     -29.498  10.498   6.853  1.00  0.00    -0.178 NA
ATOM      4  N   UNL     1     -28.907   9.371   7.299  1.00  0.00    -0.260 N 
ATOM      5  C   UNL     1     -27.586   9.278   6.981  1.00  0.00    +0.160 A 
ATOM      6  N   UNL     1     -26.756   8.272   7.293  1.00  0.00    -0.217 NA
ATOM      7  C   UNL     1     -25.520   8.504   6.816  1.00  0.00    +0.226 A 
ATOM      8  N   UNL     1     -25.082   9.574   6.122  1.00  0.00    -0.219 NA
ATOM      9  C   UNL     1     -25.960  10.560   5.836  1.00  0.00    +0.138 A 
ATOM     10  C   UNL     1     -27.281  10.427   6.274  1.00  0.00    +0.084 A 
ATOM     11  H   UNL     1     -29.457   8.698   7.817  1.00  0.00    +0.192 HD
ENDROOT
BRANCH   9  12
ATOM     12  N   UNL     1     -25.470  11.651   5.132  1.00  0.00    -0.383 N 
ATOM     13  H   UNL     1     -26.143  12.119   4.540  1.00  0.00    +0.158 HD
ATOM     14  H   UNL     1     -24.936  12.254   5.749  1.00  0.00    +0.158 HD
ENDBRANCH   9  12
TORSDOF 1
ENDMDL
MODEL 2
REMARK VINA RESULT:    -6.274      1.153      4.182
REMARK INTER + INTRA:          -6.458
REMARK INTER:                  -6.458
REMARK INTRA:                   0.000
REMARK UNBOUND:                 0.000
REMARK SMILES Cc1n[nH]c2ncnc(N)c12
REMARK SMILES IDX 1 1 2 2 3 3 4 4 5 5 6 6 7 7 8 8 9 9 11 10 10 12
REMARK H PARENT 4 11 10 13 10 14
ROOT
ATOM      1  C   UNL     1     -26.700   8.370   6.890  1.00  0.00    +0.069 C 
ATOM      2  C   UNL     1     -26.500   9.686   6.236  1.00  0.00    +0.072 A 
ATOM      3  N   UNL     1     -25.292  10.017   5.748  1.00  0.00    -0.178 NA
ATOM      4  N   UNL     1     -25.490  11.242   5.220  1.00  0.00    -0.260 N 
ATOM      5  C   UNL     1     -26.764  11.703   5.361  1.00  0.00    +0.160 A 
ATOM      6  N   UNL     1     -27.241  12.882   4.932  1.00  0.00    -0.217 NA
ATOM      7  C   UNL     1     -28.545  13.011   5.236  1.00  0.00    +0.226 A 
ATOM      8  N   UNL     1     -29.339  12.137   5.888  1.00  0.00    -0.219 NA
ATOM      9  C   UNL     1     -28.807  10.965   6.299  1.00  0.00    +0.138 A 
ATOM     10  C   UNL     1     -27.458  10.714   6.032  1.00  0.00    +0.084 A 
ATOM     11  H   UNL     1     -24.717  11.717   4.772  1.00  0.00    +0.192 HD
ENDROOT
BRANCH   9  12
ATOM     12  N   UNL     1     -29.651  10.097   6.978  1.00  0.00    -0.383 N 
ATOM     13  H   UNL     1     -30.542  10.487   7.249  1.00  0.00    +0.158 HD
ATOM     14  H   UNL     1     -29.690   9.203   6.499  1.00  0.00    +0.158 HD
ENDBRANCH   9  12
TORSDOF 1
ENDMDL
MODEL 3
REMARK VINA RESULT:    -6.171      1.371      2.698
REMARK INTER + INTRA:          -6.352
REMARK INTER:                  -6.352
REMARK INTRA:                   0.000
REMARK UNBOUND:                 0.000
REMARK SMILES Cc1n[nH]c2ncnc(N)c12
REMARK SMILES IDX 1 1 2 2 3 3 4 4 5 5 6 6 7 7 8 8 9 9 11 10 10 12
REMARK H PARENT 4 11 10 13 10 14
ROOT
ATOM      1  C   UNL     1     -30.387  11.291   6.687  1.00  0.00    +0.069 C 
ATOM      2  C   UNL     1     -29.008  11.463   6.171  1.00  0.00    +0.072 A 
ATOM      3  N   UNL     1     -28.705  12.524   5.403  1.00  0.00    -0.178 NA
ATOM      4  N   UNL     1     -27.391  12.365   5.148  1.00  0.00    -0.260 N 
ATOM      5  C   UNL     1     -26.852  11.246   5.708  1.00  0.00    +0.160 A 
ATOM      6  N   UNL     1     -25.576  10.840   5.619  1.00  0.00    -0.217 NA
ATOM      7  C   UNL     1     -25.389   9.695   6.298  1.00  0.00    +0.226 A 
ATOM      8  N   UNL     1     -26.299   8.977   6.989  1.00  0.00    -0.219 NA
ATOM      9  C   UNL     1     -27.570   9.430   7.045  1.00  0.00    +0.138 A 
ATOM     10  C   UNL     1     -27.885  10.620   6.382  1.00  0.00    +0.084 A 
ATOM     11  H   UNL     1     -26.911  13.054   4.583  1.00  0.00    +0.192 HD
ENDROOT
BRANCH   9  12
ATOM     12  N   UNL     1     -28.480   8.659   7.753  1.00  0.00    -0.383 N 
ATOM     13  H   UNL     1     -29.318   8.408   7.247  1.00  0.00    +0.158 HD
ATOM     14  H   UNL     1     -28.003   7.894   8.219  1.00  0.00    +0.158 HD
ENDBRANCH   9  12
TORSDOF 1
ENDMDL
MODEL 4
REMARK VINA RESULT:    -6.059      1.455      1.990
REMARK INTER + INTRA:          -6.236
REMARK INTER:                  -6.236
REMARK INTRA:                   0.000
REMARK UNBOUND:                 0.000
REMARK SMILES Cc1n[nH]c2ncnc(N)c12
REMARK SMILES IDX 1 1 2 2 3 3 4 4 5 5 6 6 7 7 8 8 9 9 11 10 10 12
REMARK H PARENT 4 11 10 13 10 14
ROOT
ATOM      1  C   UNL     1     -30.941  11.673   6.285  1.00  0.00    +0.069 C 
ATOM      2  C   UNL     1     -29.735  10.855   6.562  1.00  0.00    +0.072 A 
ATOM      3  N   UNL     1     -29.841   9.719   7.272  1.00  0.00    -0.178 NA
ATOM      4  N   UNL     1     -28.580   9.245   7.301  1.00  0.00    -0.260 N 
ATOM      5  C   UNL     1     -27.679  10.036   6.653  1.00  0.00    +0.160 A 
ATOM      6  N   UNL     1     -26.363   9.809   6.523  1.00  0.00    -0.217 NA
ATOM      7  C   UNL     1     -25.775  10.792   5.817  1.00  0.00    +0.226 A 
ATOM      8  N   UNL     1     -26.346  11.892   5.286  1.00  0.00    -0.219 NA
ATOM      9  C   UNL     1     -27.675  12.072   5.448  1.00  0.00    +0.138 A 
ATOM     10  C   UNL     1     -28.397  11.109   6.160  1.00  0.00    +0.084 A 
ATOM     11  H   UNL     1     -28.391   8.374   7.780  1.00  0.00    +0.192 HD
ENDROOT
BRANCH   9  12
ATOM     12  N   UNL     1     -28.224  13.222   4.900  1.00  0.00    -0.383 N 
ATOM     13  H   UNL     1     -29.000  13.070   4.270  1.00  0.00    +0.158 HD
ATOM     14  H   UNL     1     -28.376  13.916   5.623  1.00  0.00    +0.158 HD
ENDBRANCH   9  12
TORSDOF 1
ENDMDL
MODEL 5
REMARK VINA RESULT:    -5.795      1.576      4.275
REMARK INTER + INTRA:          -5.964
REMARK INTER:                  -5.964
REMARK INTRA:                   0.000
REMARK UNBOUND:                 0.000
REMARK SMILES Cc1n[nH]c2ncnc(N)c12
REMARK SMILES IDX 1 1 2 2 3 3 4 4 5 5 6 6 7 7 8 8 9 9 11 10 10 12
REMARK H PARENT 4 11 10 13 10 14
ROOT
ATOM      1  C   UNL     1     -26.719   5.968   7.949  1.00  0.00    +0.069 C 
ATOM      2  C   UNL     1     -25.957   7.092   7.354  1.00  0.00    +0.072 A 
ATOM      3  N   UNL     1     -24.623   7.003   7.219  1.00  0.00    -0.178 NA
ATOM      4  N   UNL     1     -24.285   8.170   6.634  1.00  0.00    -0.260 N 
ATOM      5  C   UNL     1     -25.343   8.997   6.404  1.00  0.00    +0.160 A 
ATOM      6  N   UNL     1     -25.301  10.212   5.838  1.00  0.00    -0.217 NA
ATOM      7  C   UNL     1     -26.532  10.748   5.760  1.00  0.00    +0.226 A 
ATOM      8  N   UNL     1     -27.700  10.217   6.178  1.00  0.00    -0.219 NA
ATOM      9  C   UNL     1     -27.685   8.991   6.743  1.00  0.00    +0.138 A 
ATOM     10  C   UNL     1     -26.460   8.329   6.871  1.00  0.00    +0.084 A 
ATOM     11  H   UNL     1     -23.314   8.349   6.413  1.00  0.00    +0.192 HD
ENDROOT
BRANCH   9  12
ATOM     12  N   UNL     1     -28.903   8.483   7.173  1.00  0.00    -0.383 N 
ATOM     13  H   UNL     1     -29.276   7.728   6.613  1.00  0.00    +0.158 HD
ATOM     14  H   UNL     1     -28.879   8.317   8.173  1.00  0.00    +0.158 HD
ENDBRANCH   9  12
TORSDOF 1
ENDMDL
MODEL 6
REMARK VINA RESULT:    -5.735     12.956     13.845
REMARK INTER + INTRA:          -5.903
REMARK INTER:                  -5.903
REMARK INTRA:                   0.000
REMARK UNBOUND:                 0.000
REMARK SMILES Cc1n[nH]c2ncnc(N)c12
REMARK SMILES IDX 1 1 2 2 3 3 4 4 5 5 6 6 7 7 8 8 9 9 11 10 10 12
REMARK H PARENT 4 11 10 13 10 14
ROOT
ATOM      1  C   UNL     1     -33.112   1.365   2.876  1.00  0.00    +0.069 C 
ATOM      2  C   UNL     1     -33.132   1.038   1.430  1.00  0.00    +0.072 A 
ATOM      3  N   UNL     1     -32.901   2.000   0.520  1.00  0.00    -0.178 NA
ATOM      4  N   UNL     1     -32.975   1.346  -0.656  1.00  0.00    -0.260 N 
ATOM      5  C   UNL     1     -33.254   0.018  -0.533  1.00  0.00    +0.160 A 
ATOM      6  N   UNL     1     -33.384  -0.869  -1.531  1.00  0.00    -0.217 NA
ATOM      7  C   UNL     1     -33.655  -2.095  -1.049  1.00  0.00    +0.226 A 
ATOM      8  N   UNL     1     -33.806  -2.471   0.238  1.00  0.00    -0.219 NA
ATOM      9  C   UNL     1     -33.666  -1.537   1.203  1.00  0.00    +0.138 A 
ATOM     10  C   UNL     1     -33.374  -0.223   0.823  1.00  0.00    +0.084 A 
ATOM     11  H   UNL     1     -32.825   1.858  -1.516  1.00  0.00    +0.192 HD
ENDROOT
BRANCH   9  12
ATOM     12  N   UNL     1     -33.841  -1.957   2.514  1.00  0.00    -0.383 N 
ATOM     13  H   UNL     1     -33.138  -2.596   2.858  1.00  0.00    +0.158 HD
ATOM     14  H   UNL     1     -34.042  -1.163   3.111  1.00  0.00    +0.158 HD
ENDBRANCH   9  12
TORSDOF 1
ENDMDL
MODEL 7
REMARK VINA RESULT:    -5.728      1.245      2.974
REMARK INTER + INTRA:          -5.896
REMARK INTER:                  -5.896
REMARK INTRA:                   0.000
REMARK UNBOUND:                 0.000
REMARK SMILES Cc1n[nH]c2ncnc(N)c12
REMARK SMILES IDX 1 1 2 2 3 3 4 4 5 5 6 6 7 7 8 8 9 9 11 10 10 12
REMARK H PARENT 4 11 10 13 10 14
ROOT
ATOM      1  C   UNL     1     -29.765   8.578   7.316  1.00  0.00    +0.069 C 
ATOM      2  C   UNL     1     -28.320   8.797   7.065  1.00  0.00    +0.072 A 
ATOM      3  N   UNL     1     -27.429   7.844   7.386  1.00  0.00    -0.178 NA
ATOM      4  N   UNL     1     -26.249   8.371   7.002  1.00  0.00    -0.260 N 
ATOM      5  C   UNL     1     -26.352   9.619   6.465  1.00  0.00    +0.160 A 
ATOM      6  N   UNL     1     -25.346  10.376   6.001  1.00  0.00    -0.217 NA
ATOM      7  C   UNL     1     -25.807  11.551   5.535  1.00  0.00    +0.226 A 
ATOM      8  N   UNL     1     -27.080  11.996   5.509  1.00  0.00    -0.219 NA
ATOM      9  C   UNL     1     -28.054  11.193   5.991  1.00  0.00    +0.138 A 
ATOM     10  C   UNL     1     -27.697   9.939   6.496  1.00  0.00    +0.084 A 
ATOM     11  H   UNL     1     -25.402   7.832   7.131  1.00  0.00    +0.192 HD
ENDROOT
BRANCH   9  12
ATOM     12  N   UNL     1     -29.349  11.690   5.960  1.00  0.00    -0.383 N 
ATOM     13  H   UNL     1     -29.702  12.027   6.845  1.00  0.00    +0.158 HD
ATOM     14  H   UNL     1     -29.463  12.320   5.173  1.00  0.00    +0.158 HD
ENDBRANCH   9  12
TORSDOF 1
ENDMDL
MODEL 8
REMARK VINA RESULT:    -5.709      1.462      3.050
REMARK INTER + INTRA:          -5.875
REMARK INTER:                  -5.875
REMARK INTRA:                   0.000
REMARK UNBOUND:                 0.000
REMARK SMILES Cc1n[nH]c2ncnc(N)c12
REMARK SMILES IDX 1 1 2 2 3 3 4 4 5 5 6 6 7 7 8 8 9 9 11 10 10 12
REMARK H PARENT 4 11 10 13 10 14
ROOT
ATOM      1  C   UNL     1     -28.727   8.291   7.306  1.00  0.00    +0.069 C 
ATOM      2  C   UNL     1     -28.902   9.699   6.873  1.00  0.00    +0.072 A 
ATOM      3  N   UNL     1     -29.984  10.393   7.264  1.00  0.00    -0.178 NA
ATOM      4  N   UNL     1     -29.796  11.609   6.713  1.00  0.00    -0.260 N 
ATOM      5  C   UNL     1     -28.651  11.711   5.982  1.00  0.00    +0.160 A 
ATOM      6  N   UNL     1     -28.213  12.797   5.327  1.00  0.00    -0.217 NA
ATOM      7  C   UNL     1     -27.042  12.548   4.714  1.00  0.00    +0.226 A 
ATOM      8  N   UNL     1     -26.341  11.396   4.695  1.00  0.00    -0.219 NA
ATOM      9  C   UNL     1     -26.828  10.332   5.369  1.00  0.00    +0.138 A 
ATOM     10  C   UNL     1     -28.038  10.474   6.055  1.00  0.00    +0.084 A 
ATOM     11  H   UNL     1     -30.484  12.334   6.870  1.00  0.00    +0.192 HD
ENDROOT
BRANCH   9  12
ATOM     12  N   UNL     1     -26.086   9.161   5.315  1.00  0.00    -0.383 N 
ATOM     13  H   UNL     1     -25.627   8.902   6.178  1.00  0.00    +0.158 HD
ATOM     14  H   UNL     1     -26.624   8.427   4.867  1.00  0.00    +0.158 HD
ENDBRANCH   9  12
TORSDOF 1
ENDMDL
MODEL 9
REMARK VINA RESULT:    -5.506      2.231      2.915
REMARK INTER + INTRA:          -5.667
REMARK INTER:                  -5.667
REMARK INTRA:                   0.000
REMARK UNBOUND:                 0.000
REMARK SMILES Cc1n[nH]c2ncnc(N)c12
REMARK SMILES IDX 1 1 2 2 3 3 4 4 5 5 6 6 7 7 8 8 9 9 11 10 10 12
REMARK H PARENT 4 11 10 13 10 14
ROOT
ATOM      1  C   UNL     1     -29.904   8.443   7.311  1.00  0.00    +0.069 C 
ATOM      2  C   UNL     1     -28.636   7.746   7.633  1.00  0.00    +0.072 A 
ATOM      3  N   UNL     1     -28.643   6.679   8.450  1.00  0.00    -0.178 NA
ATOM      4  N   UNL     1     -27.349   6.304   8.493  1.00  0.00    -0.260 N 
ATOM      5  C   UNL     1     -26.522   7.092   7.750  1.00  0.00    +0.160 A 
ATOM      6  N   UNL     1     -25.195   6.952   7.610  1.00  0.00    -0.217 NA
ATOM      7  C   UNL     1     -24.696   7.903   6.799  1.00  0.00    +0.226 A 
ATOM      8  N   UNL     1     -25.358   8.902   6.181  1.00  0.00    -0.219 NA
ATOM      9  C   UNL     1     -26.693   8.998   6.359  1.00  0.00    +0.138 A 
ATOM     10  C   UNL     1     -27.328   8.058   7.176  1.00  0.00    +0.084 A 
ATOM     11  H   UNL     1     -27.086   5.499   9.046  1.00  0.00    +0.192 HD
ENDROOT
BRANCH   9  12
ATOM     12  N   UNL     1     -27.338  10.047   5.718  1.00  0.00    -0.383 N 
ATOM     13  H   UNL     1     -27.859  10.666   6.323  1.00  0.00    +0.158 HD
ATOM     14  H   UNL     1     -26.706  10.500   5.067  1.00  0.00    +0.158 HD
ENDBRANCH   9  12
TORSDOF 1
ENDMDL
