REMARK SMILES CC(C)O[C@@H](C(=O)O)c1ccccc1
REMARK SMILES IDX 5 1 4 2 2 3 1 4 3 5 6 6 7 7 8 8 9 10 10 11 14 12 11 13 13 14
REMARK SMILES IDX 12 15
REMARK H PARENT 8 9
ROOT
ATOM      1  C   UNL     1       0.084   0.389  -0.400  1.00  0.00    +0.258 C 
ENDROOT
BRANCH   1   2
ATOM      2  O   UNL     1      -1.142  -0.044   0.199  1.00  0.00    -0.359 OA
BRANCH   2   3
ATOM      3  C   UNL     1      -1.988  -0.815  -0.656  1.00  0.00    +0.113 C 
ATOM      4  C   UNL     1      -2.627   0.051  -1.737  1.00  0.00    +0.038 C 
ATOM      5  C   UNL     1      -3.064  -1.435   0.228  1.00  0.00    +0.038 C 
ENDBRANCH   2   3
ENDBRANCH   1   2
BRANCH   1   6
ATOM      6  C   UNL     1       0.058   1.885  -0.758  1.00  0.00    +0.337 C 
ATOM      7  O   UNL     1      -0.830   2.692  -0.527  1.00  0.00    -0.249 OA
BRANCH   6   8
ATOM      8  O   UNL     1       1.154   2.287  -1.445  1.00  0.00    -0.479 OA
ATOM      9  H   UNL     1       1.005   3.248  -1.570  1.00  0.00    +0.296 HD
ENDBRANCH   6   8
ENDBRANCH   1   6
BRANCH   1  10
ATOM     10  C   UNL     1       1.211   0.079   0.573  1.00  0.00    -0.008 A 
ATOM     11  C   UNL     1       2.417  -0.472   0.111  1.00  0.00    +0.007 A 
ATOM     12  C   UNL     1       1.083   0.365   1.942  1.00  0.00    +0.007 A 
ATOM     13  C   UNL     1       3.462  -0.739   0.998  1.00  0.00    +0.000 A 
ATOM     14  C   UNL     1       2.128   0.097   2.826  1.00  0.00    +0.000 A 
ATOM     15  C   UNL     1       3.317  -0.455   2.354  1.00  0.00    +0.000 A 
ENDBRANCH   1  10
TORSDOF 5
