REMARK SMILES Cc1nc(S)c2cnn(C)c2n1
REMARK SMILES IDX 10 1 9 2 8 3 7 4 6 5 4 6 3 7 2 8 1 9 12 10 11 11 5 12
REMARK H PARENT 5 13
ROOT
ATOM      1  C   UNL     1       2.468  -1.301   1.311  1.00  0.00    +0.176 C 
ATOM      2  N   UNL     1       1.908  -0.294   0.445  1.00  0.00    -0.250 N 
ATOM      3  N   UNL     1       2.732   0.586  -0.173  1.00  0.00    -0.179 NA
ATOM      4  C   UNL     1       1.890   1.352  -0.876  1.00  0.00    +0.148 A 
ATOM      5  C   UNL     1       0.542   0.974  -0.715  1.00  0.00    +0.071 A 
ATOM      6  C   UNL     1      -0.717   1.353  -1.155  1.00  0.00    +0.108 A 
ATOM      7  N   UNL     1      -1.810   0.682  -0.732  1.00  0.00    -0.226 NA
ATOM      8  C   UNL     1      -1.639  -0.349   0.125  1.00  0.00    +0.129 A 
ATOM      9  C   UNL     1      -2.875  -1.085   0.547  1.00  0.00    +0.090 C 
ATOM     10  N   UNL     1      -0.466  -0.807   0.606  1.00  0.00    -0.214 NA
ATOM     11  C   UNL     1       0.585  -0.102   0.152  1.00  0.00    +0.162 A 
ENDROOT
BRANCH   6  12
ATOM     12  S   UNL     1      -0.923   2.701  -2.264  1.00  0.00    -0.123 SA
ATOM     13  H   UNL     1      -2.257   2.589  -2.317  1.00  0.00    +0.110 HD
ENDBRANCH   6  12
TORSDOF 1
