MODEL 1
REMARK VINA RESULT:    -8.530      0.000      0.000
REMARK INTER + INTRA:         -10.318
REMARK INTER:                 -10.026
REMARK INTRA:                  -0.293
REMARK UNBOUND:                -0.293
REMARK SMILES Nc1ccc(Cc2ccc(N)c(Br)c2)cc1Br
REMARK SMILES IDX 6 1 5 2 2 3 16 4 3 5 15 6 4 7 17 8 1 9 7 12 14 13 8 14 12 15
REMARK SMILES IDX 9 16 10 17 13 18 11 19
REMARK H PARENT 1 10 1 11 11 20 11 21
ROOT
ATOM      1  C   UNL     1     -30.111   8.514   7.616  1.00  0.00    +0.071 C 
ENDROOT
BRANCH   1   2
ATOM      2  C   UNL     1     -31.225   7.803   6.882  1.00  0.00    -0.042 A 
ATOM      3  C   UNL     1     -33.341   6.517   5.509  1.00  0.00    +0.046 A 
ATOM      4  C   UNL     1     -33.204   6.395   6.901  1.00  0.00    +0.041 A 
ATOM      5  C   UNL     1     -32.362   7.232   4.811  1.00  0.00    +0.027 A 
ATOM      6  C   UNL     1     -32.172   7.046   7.584  1.00  0.00    +0.022 A 
ATOM      7  C   UNL     1     -31.327   7.884   5.488  1.00  0.00    +0.006 A 
ATOM      8 Br   UNL     1     -34.440   5.369   7.918  1.00  0.00    -0.049 Br
BRANCH   3   9
ATOM      9  N   UNL     1     -34.292   5.777   4.781  1.00  0.00    -0.398 N 
ATOM     10  H   UNL     1     -33.907   4.975   4.295  1.00  0.00    +0.156 HD
ATOM     11  H   UNL     1     -34.863   6.366   4.177  1.00  0.00    +0.156 HD
ENDBRANCH   3   9
ENDBRANCH   1   2
BRANCH   1  12
ATOM     12  C   UNL     1     -29.668   9.796   6.952  1.00  0.00    -0.042 A 
ATOM     13  C   UNL     1     -28.337   9.967   6.548  1.00  0.00    +0.022 A 
ATOM     14  C   UNL     1     -30.583  10.827   6.703  1.00  0.00    +0.006 A 
ATOM     15  C   UNL     1     -27.933  11.152   5.922  1.00  0.00    +0.041 A 
ATOM     16  C   UNL     1     -30.173  12.009   6.078  1.00  0.00    +0.027 A 
ATOM     17  C   UNL     1     -28.835  12.209   5.721  1.00  0.00    +0.046 A 
ATOM     18 Br   UNL     1     -26.116  11.301   5.383  1.00  0.00    -0.049 Br
BRANCH  17  19
ATOM     19  N   UNL     1     -28.491  13.358   4.989  1.00  0.00    -0.398 N 
ATOM     20  H   UNL     1     -29.174  14.106   5.041  1.00  0.00    +0.156 HD
ATOM     21  H   UNL     1     -27.542  13.675   5.177  1.00  0.00    +0.156 HD
ENDBRANCH  17  19
ENDBRANCH   1  12
TORSDOF 4
ENDMDL
MODEL 2
REMARK VINA RESULT:    -8.523      1.349      6.685
REMARK INTER + INTRA:         -10.311
REMARK INTER:                  -9.834
REMARK INTRA:                  -0.477
REMARK UNBOUND:                -0.293
REMARK SMILES Nc1ccc(Cc2ccc(N)c(Br)c2)cc1Br
REMARK SMILES IDX 6 1 5 2 2 3 16 4 3 5 15 6 4 7 17 8 1 9 7 12 14 13 8 14 12 15
REMARK SMILES IDX 9 16 10 17 13 18 11 19
REMARK H PARENT 1 10 1 11 11 20 11 21
ROOT
ATOM      1  C   UNL     1     -31.296   9.542   7.529  1.00  0.00    +0.071 C 
ENDROOT
BRANCH   1   2
ATOM      2  C   UNL     1     -29.913   9.842   6.997  1.00  0.00    -0.042 A 
ATOM      3  C   UNL     1     -27.307  10.419   6.051  1.00  0.00    +0.046 A 
ATOM      4  C   UNL     1     -28.334  11.372   5.965  1.00  0.00    +0.041 A 
ATOM      5  C   UNL     1     -27.625   9.152   6.553  1.00  0.00    +0.027 A 
ATOM      6  C   UNL     1     -29.617  11.097   6.449  1.00  0.00    +0.022 A 
ATOM      7  C   UNL     1     -28.906   8.870   7.038  1.00  0.00    +0.006 A 
ATOM      8 Br   UNL     1     -28.012  13.089   5.216  1.00  0.00    -0.049 Br
BRANCH   3   9
ATOM      9  N   UNL     1     -26.045  10.621   5.463  1.00  0.00    -0.398 N 
ATOM     10  H   UNL     1     -25.293  10.751   6.132  1.00  0.00    +0.156 HD
ATOM     11  H   UNL     1     -26.061  11.343   4.745  1.00  0.00    +0.156 HD
ENDBRANCH   3   9
ENDBRANCH   1   2
BRANCH   1  12
ATOM     12  C   UNL     1     -31.970   8.376   6.843  1.00  0.00    -0.042 A 
ATOM     13  C   UNL     1     -32.538   7.339   7.595  1.00  0.00    +0.022 A 
ATOM     14  C   UNL     1     -32.062   8.323   5.447  1.00  0.00    +0.006 A 
ATOM     15  C   UNL     1     -33.172   6.267   6.957  1.00  0.00    +0.041 A 
ATOM     16  C   UNL     1     -32.696   7.248   4.815  1.00  0.00    +0.027 A 
ATOM     17  C   UNL     1     -33.218   6.183   5.555  1.00  0.00    +0.046 A 
ATOM     18 Br   UNL     1     -33.939   4.908   8.044  1.00  0.00    -0.049 Br
BRANCH  17  19
ATOM     19  N   UNL     1     -33.950   5.185   4.889  1.00  0.00    -0.398 N 
ATOM     20  H   UNL     1     -34.010   4.306   5.391  1.00  0.00    +0.156 HD
ATOM     21  H   UNL     1     -34.855   5.514   4.559  1.00  0.00    +0.156 HD
ENDBRANCH  17  19
ENDBRANCH   1  12
TORSDOF 4
ENDMDL
MODEL 3
REMARK VINA RESULT:    -7.469      2.581      3.479
REMARK INTER + INTRA:          -9.071
REMARK INTER:                  -8.566
REMARK INTRA:                  -0.506
REMARK UNBOUND:                -0.293
REMARK SMILES Nc1ccc(Cc2ccc(N)c(Br)c2)cc1Br
REMARK SMILES IDX 6 1 5 2 2 3 16 4 3 5 15 6 4 7 17 8 1 9 7 12 14 13 8 14 12 15
REMARK SMILES IDX 9 16 10 17 13 18 11 19
REMARK H PARENT 1 10 1 11 11 20 11 21
ROOT
ATOM      1  C   UNL     1     -32.262   6.970   6.533  1.00  0.00    +0.071 C 
ENDROOT
BRANCH   1   2
ATOM      2  C   UNL     1     -32.815   6.181   7.698  1.00  0.00    -0.042 A 
ATOM      3  C   UNL     1     -33.839   4.656   9.854  1.00  0.00    +0.046 A 
ATOM      4  C   UNL     1     -34.683   5.117   8.831  1.00  0.00    +0.041 A 
ATOM      5  C   UNL     1     -32.492   5.031   9.815  1.00  0.00    +0.027 A 
ATOM      6  C   UNL     1     -34.177   5.854   7.755  1.00  0.00    +0.022 A 
ATOM      7  C   UNL     1     -31.979   5.767   8.742  1.00  0.00    +0.006 A 
ATOM      8 Br   UNL     1     -36.544   4.729   8.851  1.00  0.00    -0.049 Br
BRANCH   3   9
ATOM      9  N   UNL     1     -34.336   4.022  11.008  1.00  0.00    -0.398 N 
ATOM     10  H   UNL     1     -35.156   3.448  10.843  1.00  0.00    +0.156 HD
ATOM     11  H   UNL     1     -34.459   4.670  11.784  1.00  0.00    +0.156 HD
ENDBRANCH   3   9
ENDBRANCH   1   2
BRANCH   1  12
ATOM     12  C   UNL     1     -31.718   8.325   6.922  1.00  0.00    -0.042 A 
ATOM     13  C   UNL     1     -30.413   8.696   6.572  1.00  0.00    +0.022 A 
ATOM     14  C   UNL     1     -32.515   9.243   7.617  1.00  0.00    +0.006 A 
ATOM     15  C   UNL     1     -29.917   9.957   6.923  1.00  0.00    +0.041 A 
ATOM     16  C   UNL     1     -32.012  10.501   7.966  1.00  0.00    +0.027 A 
ATOM     17  C   UNL     1     -30.694  10.859   7.668  1.00  0.00    +0.046 A 
ATOM     18 Br   UNL     1     -28.145  10.397   6.393  1.00  0.00    -0.049 Br
BRANCH  17  19
ATOM     19  N   UNL     1     -30.269  12.173   7.930  1.00  0.00    -0.398 N 
ATOM     20  H   UNL     1     -31.004  12.792   8.254  1.00  0.00    +0.156 HD
ATOM     21  H   UNL     1     -29.436  12.208   8.513  1.00  0.00    +0.156 HD
ENDBRANCH  17  19
ENDBRANCH   1  12
TORSDOF 4
ENDMDL
MODEL 4
REMARK VINA RESULT:    -7.292      4.158      8.596
REMARK INTER + INTRA:          -8.864
REMARK INTER:                  -8.540
REMARK INTRA:                  -0.324
REMARK UNBOUND:                -0.293
REMARK SMILES Nc1ccc(Cc2ccc(N)c(Br)c2)cc1Br
REMARK SMILES IDX 6 1 5 2 2 3 16 4 3 5 15 6 4 7 17 8 1 9 7 12 14 13 8 14 12 15
REMARK SMILES IDX 9 16 10 17 13 18 11 19
REMARK H PARENT 1 10 1 11 11 20 11 21
ROOT
ATOM      1  C   UNL     1     -34.228   4.333   8.631  1.00  0.00    +0.071 C 
ENDROOT
BRANCH   1   2
ATOM      2  C   UNL     1     -33.769   5.227   7.502  1.00  0.00    -0.042 A 
ATOM      3  C   UNL     1     -32.871   6.867   5.374  1.00  0.00    +0.046 A 
ATOM      4  C   UNL     1     -32.405   7.064   6.684  1.00  0.00    +0.041 A 
ATOM      5  C   UNL     1     -33.845   5.885   5.163  1.00  0.00    +0.027 A 
ATOM      6  C   UNL     1     -32.832   6.243   7.733  1.00  0.00    +0.022 A 
ATOM      7  C   UNL     1     -34.276   5.061   6.207  1.00  0.00    +0.006 A 
ATOM      8 Br   UNL     1     -31.147   8.434   7.077  1.00  0.00    -0.049 Br
BRANCH   3   9
ATOM      9  N   UNL     1     -32.557   7.750   4.325  1.00  0.00    -0.398 N 
ATOM     10  H   UNL     1     -32.547   8.727   4.597  1.00  0.00    +0.156 HD
ATOM     11  H   UNL     1     -33.117   7.579   3.492  1.00  0.00    +0.156 HD
ENDBRANCH   3   9
ENDBRANCH   1   2
BRANCH   1  12
ATOM     12  C   UNL     1     -35.657   4.577   9.055  1.00  0.00    -0.042 A 
ATOM     13  C   UNL     1     -36.376   3.588   9.740  1.00  0.00    +0.022 A 
ATOM     14  C   UNL     1     -36.282   5.803   8.795  1.00  0.00    +0.006 A 
ATOM     15  C   UNL     1     -37.696   3.821  10.142  1.00  0.00    +0.041 A 
ATOM     16  C   UNL     1     -37.602   6.030   9.199  1.00  0.00    +0.027 A 
ATOM     17  C   UNL     1     -38.344   5.029   9.835  1.00  0.00    +0.046 A 
ATOM     18 Br   UNL     1     -38.599   2.440  11.087  1.00  0.00    -0.049 Br
BRANCH  17  19
ATOM     19  N   UNL     1     -39.622   5.339  10.329  1.00  0.00    -0.398 N 
ATOM     20  H   UNL     1     -40.228   4.536  10.450  1.00  0.00    +0.156 HD
ATOM     21  H   UNL     1     -39.592   5.941  11.149  1.00  0.00    +0.156 HD
ENDBRANCH  17  19
ENDBRANCH   1  12
TORSDOF 4
ENDMDL
MODEL 5
REMARK VINA RESULT:    -7.279      9.917     12.462
REMARK INTER + INTRA:          -8.848
REMARK INTER:                  -8.391
REMARK INTRA:                  -0.457
REMARK UNBOUND:                -0.293
REMARK SMILES Nc1ccc(Cc2ccc(N)c(Br)c2)cc1Br
REMARK SMILES IDX 6 1 5 2 2 3 16 4 3 5 15 6 4 7 17 8 1 9 7 12 14 13 8 14 12 15
REMARK SMILES IDX 9 16 10 17 13 18 11 19
REMARK H PARENT 1 10 1 11 11 20 11 21
ROOT
ATOM      1  C   UNL     1     -29.725   1.249  11.842  1.00  0.00    +0.071 C 
ENDROOT
BRANCH   1   2
ATOM      2  C   UNL     1     -28.390   1.226  11.132  1.00  0.00    -0.042 A 
ATOM      3  C   UNL     1     -25.868   1.161   9.845  1.00  0.00    +0.046 A 
ATOM      4  C   UNL     1     -26.300   2.308  10.530  1.00  0.00    +0.041 A 
ATOM      5  C   UNL     1     -26.748   0.077   9.757  1.00  0.00    +0.027 A 
ATOM      6  C   UNL     1     -27.537   2.336  11.182  1.00  0.00    +0.022 A 
ATOM      7  C   UNL     1     -27.986   0.098  10.407  1.00  0.00    +0.006 A 
ATOM      8 Br   UNL     1     -25.204   3.859  10.625  1.00  0.00    -0.049 Br
BRANCH   3   9
ATOM      9  N   UNL     1     -24.689   1.145   9.078  1.00  0.00    -0.398 N 
ATOM     10  H   UNL     1     -24.620   0.357   8.442  1.00  0.00    +0.156 HD
ATOM     11  H   UNL     1     -23.853   1.265   9.647  1.00  0.00    +0.156 HD
ENDBRANCH   3   9
ENDBRANCH   1   2
BRANCH   1  12
ATOM     12  C   UNL     1     -29.692   0.620  13.215  1.00  0.00    -0.042 A 
ATOM     13  C   UNL     1     -30.202  -0.669  13.421  1.00  0.00    +0.022 A 
ATOM     14  C   UNL     1     -29.128   1.301  14.300  1.00  0.00    +0.006 A 
ATOM     15  C   UNL     1     -30.159  -1.253  14.692  1.00  0.00    +0.041 A 
ATOM     16  C   UNL     1     -29.089   0.712  15.569  1.00  0.00    +0.027 A 
ATOM     17  C   UNL     1     -29.644  -0.551  15.795  1.00  0.00    +0.046 A 
ATOM     18 Br   UNL     1     -30.851  -3.013  14.889  1.00  0.00    -0.049 Br
BRANCH  17  19
ATOM     19  N   UNL     1     -29.477  -1.154  17.053  1.00  0.00    -0.398 N 
ATOM     20  H   UNL     1     -29.514  -0.507  17.833  1.00  0.00    +0.156 HD
ATOM     21  H   UNL     1     -30.075  -1.967  17.183  1.00  0.00    +0.156 HD
ENDBRANCH  17  19
ENDBRANCH   1  12
TORSDOF 4
ENDMDL
MODEL 6
REMARK VINA RESULT:    -6.947      2.427      6.946
REMARK INTER + INTRA:          -8.458
REMARK INTER:                  -8.199
REMARK INTRA:                  -0.259
REMARK UNBOUND:                -0.293
REMARK SMILES Nc1ccc(Cc2ccc(N)c(Br)c2)cc1Br
REMARK SMILES IDX 6 1 5 2 2 3 16 4 3 5 15 6 4 7 17 8 1 9 7 12 14 13 8 14 12 15
REMARK SMILES IDX 9 16 10 17 13 18 11 19
REMARK H PARENT 1 10 1 11 11 20 11 21
ROOT
ATOM      1  C   UNL     1     -31.582   8.602   7.245  1.00  0.00    +0.071 C 
ENDROOT
BRANCH   1   2
ATOM      2  C   UNL     1     -30.093   8.345   7.224  1.00  0.00    -0.042 A 
ATOM      3  C   UNL     1     -27.296   7.899   7.224  1.00  0.00    +0.046 A 
ATOM      4  C   UNL     1     -27.879   8.825   6.345  1.00  0.00    +0.041 A 
ATOM      5  C   UNL     1     -28.143   7.152   8.049  1.00  0.00    +0.027 A 
ATOM      6  C   UNL     1     -29.257   9.062   6.356  1.00  0.00    +0.022 A 
ATOM      7  C   UNL     1     -29.522   7.383   8.066  1.00  0.00    +0.006 A 
ATOM      8 Br   UNL     1     -26.812   9.821   5.127  1.00  0.00    -0.049 Br
BRANCH   3   9
ATOM      9  N   UNL     1     -25.935   7.550   7.152  1.00  0.00    -0.398 N 
ATOM     10  H   UNL     1     -25.452   7.583   8.043  1.00  0.00    +0.156 HD
ATOM     11  H   UNL     1     -25.442   8.057   6.418  1.00  0.00    +0.156 HD
ENDBRANCH   3   9
ENDBRANCH   1   2
BRANCH   1  12
ATOM     12  C   UNL     1     -32.416   7.356   7.063  1.00  0.00    -0.042 A 
ATOM     13  C   UNL     1     -32.705   6.527   8.155  1.00  0.00    +0.022 A 
ATOM     14  C   UNL     1     -32.936   7.019   5.808  1.00  0.00    +0.006 A 
ATOM     15  C   UNL     1     -33.488   5.379   7.985  1.00  0.00    +0.041 A 
ATOM     16  C   UNL     1     -33.716   5.871   5.644  1.00  0.00    +0.027 A 
ATOM     17  C   UNL     1     -33.965   5.009   6.717  1.00  0.00    +0.046 A 
ATOM     18 Br   UNL     1     -33.857   4.316   9.518  1.00  0.00    -0.049 Br
BRANCH  17  19
ATOM     19  N   UNL     1     -34.852   3.933   6.536  1.00  0.00    -0.398 N 
ATOM     20  H   UNL     1     -34.631   3.113   7.089  1.00  0.00    +0.156 HD
ATOM     21  H   UNL     1     -35.828   4.211   6.611  1.00  0.00    +0.156 HD
ENDBRANCH  17  19
ENDBRANCH   1  12
TORSDOF 4
ENDMDL
MODEL 7
REMARK VINA RESULT:    -6.908      2.041      6.510
REMARK INTER + INTRA:          -8.412
REMARK INTER:                  -8.399
REMARK INTRA:                  -0.013
REMARK UNBOUND:                -0.293
REMARK SMILES Nc1ccc(Cc2ccc(N)c(Br)c2)cc1Br
REMARK SMILES IDX 6 1 5 2 2 3 16 4 3 5 15 6 4 7 17 8 1 9 7 12 14 13 8 14 12 15
REMARK SMILES IDX 9 16 10 17 13 18 11 19
REMARK H PARENT 1 10 1 11 11 20 11 21
ROOT
ATOM      1  C   UNL     1     -31.130  10.047   6.680  1.00  0.00    +0.071 C 
ENDROOT
BRANCH   1   2
ATOM      2  C   UNL     1     -29.637  10.122   6.455  1.00  0.00    -0.042 A 
ATOM      3  C   UNL     1     -26.847  10.249   5.981  1.00  0.00    +0.046 A 
ATOM      4  C   UNL     1     -27.443   9.079   6.480  1.00  0.00    +0.041 A 
ATOM      5  C   UNL     1     -27.660  11.372   5.792  1.00  0.00    +0.027 A 
ATOM      6  C   UNL     1     -28.822   9.007   6.697  1.00  0.00    +0.022 A 
ATOM      7  C   UNL     1     -29.041  11.307   6.006  1.00  0.00    +0.006 A 
ATOM      8 Br   UNL     1     -26.399   7.534   6.850  1.00  0.00    -0.049 Br
BRANCH   3   9
ATOM      9  N   UNL     1     -25.452  10.393   5.871  1.00  0.00    -0.398 N 
ATOM     10  H   UNL     1     -24.938  10.064   6.681  1.00  0.00    +0.156 HD
ATOM     11  H   UNL     1     -25.179  11.332   5.586  1.00  0.00    +0.156 HD
ENDBRANCH   3   9
ENDBRANCH   1   2
BRANCH   1  12
ATOM     12  C   UNL     1     -31.626   8.656   6.998  1.00  0.00    -0.042 A 
ATOM     13  C   UNL     1     -32.421   7.956   6.080  1.00  0.00    +0.022 A 
ATOM     14  C   UNL     1     -31.280   8.030   8.201  1.00  0.00    +0.006 A 
ATOM     15  C   UNL     1     -32.869   6.662   6.372  1.00  0.00    +0.041 A 
ATOM     16  C   UNL     1     -31.731   6.738   8.488  1.00  0.00    +0.027 A 
ATOM     17  C   UNL     1     -32.569   6.053   7.602  1.00  0.00    +0.046 A 
ATOM     18 Br   UNL     1     -33.924   5.768   5.068  1.00  0.00    -0.049 Br
BRANCH  17  19
ATOM     19  N   UNL     1     -32.901   4.715   7.874  1.00  0.00    -0.398 N 
ATOM     20  H   UNL     1     -33.690   4.600   8.500  1.00  0.00    +0.156 HD
ATOM     21  H   UNL     1     -32.978   4.149   7.031  1.00  0.00    +0.156 HD
ENDBRANCH  17  19
ENDBRANCH   1  12
TORSDOF 4
ENDMDL
MODEL 8
REMARK VINA RESULT:    -6.534      4.313      8.732
REMARK INTER + INTRA:          -7.973
REMARK INTER:                  -7.537
REMARK INTRA:                  -0.436
REMARK UNBOUND:                -0.293
REMARK SMILES Nc1ccc(Cc2ccc(N)c(Br)c2)cc1Br
REMARK SMILES IDX 6 1 5 2 2 3 16 4 3 5 15 6 4 7 17 8 1 9 7 12 14 13 8 14 12 15
REMARK SMILES IDX 9 16 10 17 13 18 11 19
REMARK H PARENT 1 10 1 11 11 20 11 21
ROOT
ATOM      1  C   UNL     1     -34.939   3.424   6.893  1.00  0.00    +0.071 C 
ENDROOT
BRANCH   1   2
ATOM      2  C   UNL     1     -34.153   4.687   6.625  1.00  0.00    -0.042 A 
ATOM      3  C   UNL     1     -32.644   7.025   6.097  1.00  0.00    +0.046 A 
ATOM      4  C   UNL     1     -32.473   6.310   7.293  1.00  0.00    +0.041 A 
ATOM      5  C   UNL     1     -33.630   6.589   5.205  1.00  0.00    +0.027 A 
ATOM      6  C   UNL     1     -33.203   5.145   7.548  1.00  0.00    +0.022 A 
ATOM      7  C   UNL     1     -34.363   5.425   5.454  1.00  0.00    +0.006 A 
ATOM      8 Br   UNL     1     -31.217   6.881   8.600  1.00  0.00    -0.049 Br
BRANCH   3   9
ATOM      9  N   UNL     1     -32.017   8.263   5.867  1.00  0.00    -0.398 N 
ATOM     10  H   UNL     1     -31.039   8.190   5.608  1.00  0.00    +0.156 HD
ATOM     11  H   UNL     1     -32.175   8.925   6.624  1.00  0.00    +0.156 HD
ENDBRANCH   3   9
ENDBRANCH   1   2
BRANCH   1  12
ATOM     12  C   UNL     1     -35.817   3.504   8.119  1.00  0.00    -0.042 A 
ATOM     13  C   UNL     1     -36.624   4.627   8.346  1.00  0.00    +0.022 A 
ATOM     14  C   UNL     1     -35.861   2.448   9.038  1.00  0.00    +0.006 A 
ATOM     15  C   UNL     1     -37.445   4.692   9.477  1.00  0.00    +0.041 A 
ATOM     16  C   UNL     1     -36.683   2.520  10.167  1.00  0.00    +0.027 A 
ATOM     17  C   UNL     1     -37.450   3.660  10.429  1.00  0.00    +0.046 A 
ATOM     18 Br   UNL     1     -38.528   6.239   9.705  1.00  0.00    -0.049 Br
BRANCH  17  19
ATOM     19  N   UNL     1     -38.351   3.641  11.508  1.00  0.00    -0.398 N 
ATOM     20  H   UNL     1     -38.110   4.275  12.262  1.00  0.00    +0.156 HD
ATOM     21  H   UNL     1     -39.321   3.727  11.213  1.00  0.00    +0.156 HD
ENDBRANCH  17  19
ENDBRANCH   1  12
TORSDOF 4
ENDMDL
MODEL 9
REMARK VINA RESULT:    -6.459      2.189      7.087
REMARK INTER + INTRA:          -7.885
REMARK INTER:                  -8.663
REMARK INTRA:                   0.778
REMARK UNBOUND:                -0.293
REMARK SMILES Nc1ccc(Cc2ccc(N)c(Br)c2)cc1Br
REMARK SMILES IDX 6 1 5 2 2 3 16 4 3 5 15 6 4 7 17 8 1 9 7 12 14 13 8 14 12 15
REMARK SMILES IDX 9 16 10 17 13 18 11 19
REMARK H PARENT 1 10 1 11 11 20 11 21
ROOT
ATOM      1  C   UNL     1     -31.982   8.567   7.014  1.00  0.00    +0.071 C 
ENDROOT
BRANCH   1   2
ATOM      2  C   UNL     1     -30.534   8.989   6.899  1.00  0.00    -0.042 A 
ATOM      3  C   UNL     1     -27.825   9.797   6.734  1.00  0.00    +0.046 A 
ATOM      4  C   UNL     1     -28.860  10.657   6.334  1.00  0.00    +0.041 A 
ATOM      5  C   UNL     1     -28.166   8.505   7.149  1.00  0.00    +0.027 A 
ATOM      6  C   UNL     1     -30.200  10.268   6.433  1.00  0.00    +0.022 A 
ATOM      7  C   UNL     1     -29.503   8.110   7.251  1.00  0.00    +0.006 A 
ATOM      8 Br   UNL     1     -28.481  12.398   5.673  1.00  0.00    -0.049 Br
BRANCH   3   9
ATOM      9  N   UNL     1     -26.468  10.111   6.532  1.00  0.00    -0.398 N 
ATOM     10  H   UNL     1     -25.889   9.989   7.356  1.00  0.00    +0.156 HD
ATOM     11  H   UNL     1     -26.341  11.021   6.093  1.00  0.00    +0.156 HD
ENDBRANCH   3   9
ENDBRANCH   1   2
BRANCH   1  12
ATOM     12  C   UNL     1     -32.171   7.229   7.689  1.00  0.00    -0.042 A 
ATOM     13  C   UNL     1     -33.334   6.480   7.471  1.00  0.00    +0.022 A 
ATOM     14  C   UNL     1     -31.178   6.702   8.523  1.00  0.00    +0.006 A 
ATOM     15  C   UNL     1     -33.501   5.235   8.088  1.00  0.00    +0.041 A 
ATOM     16  C   UNL     1     -31.351   5.457   9.138  1.00  0.00    +0.027 A 
ATOM     17  C   UNL     1     -32.532   4.727   8.969  1.00  0.00    +0.046 A 
ATOM     18 Br   UNL     1     -35.097   4.266   7.727  1.00  0.00    -0.049 Br
BRANCH  17  19
ATOM     19  N   UNL     1     -32.614   3.431   9.507  1.00  0.00    -0.398 N 
ATOM     20  H   UNL     1     -31.964   3.252  10.264  1.00  0.00    +0.156 HD
ATOM     21  H   UNL     1     -33.569   3.158   9.731  1.00  0.00    +0.156 HD
ENDBRANCH  17  19
ENDBRANCH   1  12
TORSDOF 4
ENDMDL
