REMARK SMILES CC(C)CN(CC(C)C)N=O
REMARK SMILES IDX 5 1 4 2 2 3 1 4 3 5 6 6 7 7 8 8 9 9 10 10 11 11
REMARK H PARENT
ROOT
ATOM      1  N   UNL     1       0.018  -0.235   0.448  1.00  0.00    -0.260 N 
ENDROOT
BRANCH   1   2
ATOM      2  C   UNL     1      -1.238   0.557   0.482  1.00  0.00    +0.144 C 
BRANCH   2   3
ATOM      3  C   UNL     1      -2.537  -0.285   0.425  1.00  0.00    +0.004 C 
ATOM      4  C   UNL     1      -3.756   0.637   0.521  1.00  0.00    +0.009 C 
ATOM      5  C   UNL     1      -2.622  -1.120  -0.856  1.00  0.00    +0.009 C 
ENDBRANCH   2   3
ENDBRANCH   1   2
BRANCH   1   6
ATOM      6  C   UNL     1       1.155   0.682   0.192  1.00  0.00    +0.144 C 
BRANCH   6   7
ATOM      7  C   UNL     1       2.406   0.011  -0.434  1.00  0.00    +0.004 C 
ATOM      8  C   UNL     1       3.395   1.097  -0.876  1.00  0.00    +0.009 C 
ATOM      9  C   UNL     1       3.126  -0.967   0.497  1.00  0.00    +0.009 C 
ENDBRANCH   6   7
ENDBRANCH   1   6
BRANCH   1  10
ATOM     10  N   UNL     1       0.187  -0.933   1.552  1.00  0.00    +0.052 NA
ATOM     11  O   UNL     1      -0.151  -2.107   1.370  1.00  0.00    -0.125 OA
ENDBRANCH   1  10
TORSDOF 5
