MODEL 1
REMARK VINA RESULT:    -6.242      0.000      0.000
REMARK INTER + INTRA:          -9.298
REMARK INTER:                  -8.796
REMARK INTRA:                  -0.501
REMARK UNBOUND:                -0.501
REMARK SMILES O=C1O[C@H]([C@@H](O)[C@H](O)[C@H](O)CO)[C@@H](O)[C@H]1O
REMARK SMILES IDX 7 1 9 2 11 3 12 4 10 6 8 8 5 10 6 11 4 13 3 14 13 15 2 16
REMARK SMILES IDX 15 17 1 18 14 19 16 21
REMARK H PARENT 12 5 10 7 8 9 6 12 14 20 16 22
ROOT
ATOM      1  C   UNL     1     -23.691   1.439  10.132  1.00  0.00    +0.178 C 
ENDROOT
BRANCH   1   2
ATOM      2  C   UNL     1     -22.863   0.501  11.025  1.00  0.00    +0.171 C 
BRANCH   2   3
ATOM      3  C   UNL     1     -22.838  -0.960  10.560  1.00  0.00    +0.190 C 
BRANCH   3   4
ATOM      4  O   UNL     1     -22.177  -1.040   9.297  1.00  0.00    -0.394 OA
ATOM      5  H   UNL     1     -22.731  -0.547   8.661  1.00  0.00    +0.210 HD
ENDBRANCH   3   4
ENDBRANCH   2   3
BRANCH   2   6
ATOM      6  O   UNL     1     -21.500   0.970  11.057  1.00  0.00    -0.388 OA
ATOM      7  H   UNL     1     -21.264   1.100  11.994  1.00  0.00    +0.211 HD
ENDBRANCH   2   6
ENDBRANCH   1   2
BRANCH   1   8
ATOM      8  O   UNL     1     -23.137   1.440   8.799  1.00  0.00    -0.387 OA
ATOM      9  H   UNL     1     -23.321   2.325   8.429  1.00  0.00    +0.211 HD
ENDBRANCH   1   8
BRANCH   1  10
ATOM     10  C   UNL     1     -25.186   1.081  10.005  1.00  0.00    +0.189 C 
BRANCH  10  11
ATOM     11  O   UNL     1     -25.361   0.405   8.750  1.00  0.00    -0.386 OA
ATOM     12  H   UNL     1     -26.116   0.854   8.314  1.00  0.00    +0.211 HD
ENDBRANCH  10  11
BRANCH  10  13
ATOM     13  C   UNL     1     -26.126   2.295  10.089  1.00  0.00    +0.239 C 
ATOM     14  O   UNL     1     -27.280   1.982  10.888  1.00  0.00    -0.455 OA
ATOM     15  C   UNL     1     -25.532   3.520  10.769  1.00  0.00    +0.198 C 
ATOM     16  C   UNL     1     -27.158   2.537  12.138  1.00  0.00    +0.338 C 
ATOM     17  C   UNL     1     -25.855   3.320  12.243  1.00  0.00    +0.256 C 
ATOM     18  O   UNL     1     -28.015   2.423  13.000  1.00  0.00    -0.249 OA
BRANCH  15  19
ATOM     19  O   UNL     1     -26.190   4.721  10.305  1.00  0.00    -0.386 OA
ATOM     20  H   UNL     1     -25.541   5.285   9.842  1.00  0.00    +0.211 HD
ENDBRANCH  15  19
BRANCH  17  21
ATOM     21  O   UNL     1     -25.882   4.559  12.931  1.00  0.00    -0.379 OA
ATOM     22  H   UNL     1     -24.965   4.895  12.937  1.00  0.00    +0.211 HD
ENDBRANCH  17  21
ENDBRANCH  10  13
ENDBRANCH   1  10
TORSDOF 10
ENDMDL
MODEL 2
REMARK VINA RESULT:    -6.220      1.756      3.389
REMARK INTER + INTRA:          -9.266
REMARK INTER:                  -8.682
REMARK INTRA:                  -0.584
REMARK UNBOUND:                -0.501
REMARK SMILES O=C1O[C@H]([C@@H](O)[C@H](O)[C@H](O)CO)[C@@H](O)[C@H]1O
REMARK SMILES IDX 7 1 9 2 11 3 12 4 10 6 8 8 5 10 6 11 4 13 3 14 13 15 2 16
REMARK SMILES IDX 15 17 1 18 14 19 16 21
REMARK H PARENT 12 5 10 7 8 9 6 12 14 20 16 22
ROOT
ATOM      1  C   UNL     1     -24.257   0.889  11.058  1.00  0.00    +0.178 C 
ENDROOT
BRANCH   1   2
ATOM      2  C   UNL     1     -24.580  -0.078   9.907  1.00  0.00    +0.171 C 
BRANCH   2   3
ATOM      3  C   UNL     1     -25.493  -1.247  10.296  1.00  0.00    +0.190 C 
BRANCH   3   4
ATOM      4  O   UNL     1     -26.059  -0.994  11.582  1.00  0.00    -0.394 OA
ATOM      5  H   UNL     1     -25.378  -1.236  12.239  1.00  0.00    +0.210 HD
ENDBRANCH   3   4
ENDBRANCH   2   3
BRANCH   2   6
ATOM      6  O   UNL     1     -25.240   0.655   8.854  1.00  0.00    -0.388 OA
ATOM      7  H   UNL     1     -25.493   0.006   8.171  1.00  0.00    +0.211 HD
ENDBRANCH   2   6
ENDBRANCH   1   2
BRANCH   1   8
ATOM      8  O   UNL     1     -23.312   0.264  11.954  1.00  0.00    -0.387 OA
ATOM      9  H   UNL     1     -23.495   0.631  12.840  1.00  0.00    +0.211 HD
ENDBRANCH   1   8
BRANCH   1  10
ATOM     10  C   UNL     1     -23.655   2.244  10.632  1.00  0.00    +0.189 C 
BRANCH  10  11
ATOM     11  O   UNL     1     -22.313   2.297  11.140  1.00  0.00    -0.386 OA
ATOM     12  H   UNL     1     -22.365   1.946  12.054  1.00  0.00    +0.211 HD
ENDBRANCH  10  11
BRANCH  10  13
ATOM     13  C   UNL     1     -24.456   3.462  11.123  1.00  0.00    +0.239 C 
ATOM     14  O   UNL     1     -24.276   4.574  10.229  1.00  0.00    -0.455 OA
ATOM     15  C   UNL     1     -25.964   3.263  11.163  1.00  0.00    +0.198 C 
ATOM     16  C   UNL     1     -25.379   4.719   9.424  1.00  0.00    +0.338 C 
ATOM     17  C   UNL     1     -26.429   3.671   9.772  1.00  0.00    +0.256 C 
ATOM     18  O   UNL     1     -25.475   5.601   8.585  1.00  0.00    -0.249 OA
BRANCH  15  19
ATOM     19  O   UNL     1     -26.563   4.152  12.134  1.00  0.00    -0.386 OA
ATOM     20  H   UNL     1     -26.175   3.975  13.013  1.00  0.00    +0.211 HD
ENDBRANCH  15  19
BRANCH  17  21
ATOM     21  O   UNL     1     -27.787   4.075   9.787  1.00  0.00    -0.379 OA
ATOM     22  H   UNL     1     -28.322   3.260   9.717  1.00  0.00    +0.211 HD
ENDBRANCH  17  21
ENDBRANCH  10  13
ENDBRANCH   1  10
TORSDOF 10
ENDMDL
MODEL 3
REMARK VINA RESULT:    -6.206      2.388      3.535
REMARK INTER + INTRA:          -9.247
REMARK INTER:                  -8.676
REMARK INTRA:                  -0.571
REMARK UNBOUND:                -0.501
REMARK SMILES O=C1O[C@H]([C@@H](O)[C@H](O)[C@H](O)CO)[C@@H](O)[C@H]1O
REMARK SMILES IDX 7 1 9 2 11 3 12 4 10 6 8 8 5 10 6 11 4 13 3 14 13 15 2 16
REMARK SMILES IDX 15 17 1 18 14 19 16 21
REMARK H PARENT 12 5 10 7 8 9 6 12 14 20 16 22
ROOT
ATOM      1  C   UNL     1     -25.892  -0.298  11.175  1.00  0.00    +0.178 C 
ENDROOT
BRANCH   1   2
ATOM      2  C   UNL     1     -27.210  -0.370  11.964  1.00  0.00    +0.171 C 
BRANCH   2   3
ATOM      3  C   UNL     1     -27.734  -1.793  12.198  1.00  0.00    +0.190 C 
BRANCH   3   4
ATOM      4  O   UNL     1     -27.032  -2.378  13.293  1.00  0.00    -0.394 OA
ATOM      5  H   UNL     1     -27.244  -3.332  13.284  1.00  0.00    +0.210 HD
ENDBRANCH   3   4
ENDBRANCH   2   3
BRANCH   2   6
ATOM      6  O   UNL     1     -27.013   0.237  13.257  1.00  0.00    -0.388 OA
ATOM      7  H   UNL     1     -26.066   0.151  13.471  1.00  0.00    +0.211 HD
ENDBRANCH   2   6
ENDBRANCH   1   2
BRANCH   1   8
ATOM      8  O   UNL     1     -25.474  -1.635  10.823  1.00  0.00    -0.387 OA
ATOM      9  H   UNL     1     -24.542  -1.711  11.108  1.00  0.00    +0.211 HD
ENDBRANCH   1   8
BRANCH   1  10
ATOM     10  C   UNL     1     -25.949   0.521   9.869  1.00  0.00    +0.189 C 
BRANCH  10  11
ATOM     11  O   UNL     1     -25.470  -0.323   8.811  1.00  0.00    -0.386 OA
ATOM     12  H   UNL     1     -24.925   0.258   8.239  1.00  0.00    +0.211 HD
ENDBRANCH  10  11
BRANCH  10  13
ATOM     13  C   UNL     1     -25.135   1.825   9.917  1.00  0.00    +0.239 C 
ATOM     14  O   UNL     1     -25.744   2.829   9.088  1.00  0.00    -0.455 OA
ATOM     15  C   UNL     1     -25.055   2.481  11.288  1.00  0.00    +0.198 C 
ATOM     16  C   UNL     1     -26.426   3.736   9.862  1.00  0.00    +0.338 C 
ATOM     17  C   UNL     1     -26.279   3.386  11.338  1.00  0.00    +0.256 C 
ATOM     18  O   UNL     1     -27.021   4.692   9.392  1.00  0.00    -0.249 OA
BRANCH  15  19
ATOM     19  O   UNL     1     -23.866   3.298  11.387  1.00  0.00    -0.386 OA
ATOM     20  H   UNL     1     -23.676   3.695  10.515  1.00  0.00    +0.211 HD
ENDBRANCH  15  19
BRANCH  17  21
ATOM     21  O   UNL     1     -26.088   4.451  12.253  1.00  0.00    -0.379 OA
ATOM     22  H   UNL     1     -25.223   4.853  12.039  1.00  0.00    +0.211 HD
ENDBRANCH  17  21
ENDBRANCH  10  13
ENDBRANCH   1  10
TORSDOF 10
ENDMDL
MODEL 4
REMARK VINA RESULT:    -6.020      1.727      2.377
REMARK INTER + INTRA:          -8.984
REMARK INTER:                  -8.166
REMARK INTRA:                  -0.818
REMARK UNBOUND:                -0.501
REMARK SMILES O=C1O[C@H]([C@@H](O)[C@H](O)[C@H](O)CO)[C@@H](O)[C@H]1O
REMARK SMILES IDX 7 1 9 2 11 3 12 4 10 6 8 8 5 10 6 11 4 13 3 14 13 15 2 16
REMARK SMILES IDX 15 17 1 18 14 19 16 21
REMARK H PARENT 12 5 10 7 8 9 6 12 14 20 16 22
ROOT
ATOM      1  C   UNL     1     -22.101   0.790  10.591  1.00  0.00    +0.178 C 
ENDROOT
BRANCH   1   2
ATOM      2  C   UNL     1     -22.131  -0.668  11.078  1.00  0.00    +0.171 C 
BRANCH   2   3
ATOM      3  C   UNL     1     -22.472  -1.695   9.991  1.00  0.00    +0.190 C 
BRANCH   3   4
ATOM      4  O   UNL     1     -23.826  -1.512   9.580  1.00  0.00    -0.394 OA
ATOM      5  H   UNL     1     -23.826  -0.780   8.933  1.00  0.00    +0.210 HD
ENDBRANCH   3   4
ENDBRANCH   2   3
BRANCH   2   6
ATOM      6  O   UNL     1     -20.832  -1.010  11.605  1.00  0.00    -0.388 OA
ATOM      7  H   UNL     1     -20.818  -1.978  11.723  1.00  0.00    +0.211 HD
ENDBRANCH   2   6
ENDBRANCH   1   2
BRANCH   1   8
ATOM      8  O   UNL     1     -22.010   0.808   9.150  1.00  0.00    -0.387 OA
ATOM      9  H   UNL     1     -22.080  -0.123   8.862  1.00  0.00    +0.211 HD
ENDBRANCH   1   8
BRANCH   1  10
ATOM     10  C   UNL     1     -23.327   1.641  10.981  1.00  0.00    +0.189 C 
BRANCH  10  11
ATOM     11  O   UNL     1     -24.190   0.815  11.777  1.00  0.00    -0.386 OA
ATOM     12  H   UNL     1     -23.659   0.020  11.998  1.00  0.00    +0.211 HD
ENDBRANCH  10  11
BRANCH  10  13
ATOM     13  C   UNL     1     -24.099   2.209   9.778  1.00  0.00    +0.239 C 
ATOM     14  O   UNL     1     -24.925   1.192   9.187  1.00  0.00    -0.455 OA
ATOM     15  C   UNL     1     -25.075   3.327  10.112  1.00  0.00    +0.198 C 
ATOM     16  C   UNL     1     -26.236   1.370   9.557  1.00  0.00    +0.338 C 
ATOM     17  C   UNL     1     -26.371   2.601  10.445  1.00  0.00    +0.256 C 
ATOM     18  O   UNL     1     -27.137   0.640   9.176  1.00  0.00    -0.249 OA
BRANCH  15  19
ATOM     19  O   UNL     1     -25.295   4.166   8.954  1.00  0.00    -0.386 OA
ATOM     20  H   UNL     1     -25.591   5.049   9.249  1.00  0.00    +0.211 HD
ENDBRANCH  15  19
BRANCH  17  21
ATOM     21  O   UNL     1     -27.493   3.442  10.242  1.00  0.00    -0.379 OA
ATOM     22  H   UNL     1     -27.304   4.278  10.711  1.00  0.00    +0.211 HD
ENDBRANCH  17  21
ENDBRANCH  10  13
ENDBRANCH   1  10
TORSDOF 10
ENDMDL
MODEL 5
REMARK VINA RESULT:    -5.931      2.030      5.417
REMARK INTER + INTRA:          -8.860
REMARK INTER:                  -8.188
REMARK INTRA:                  -0.672
REMARK UNBOUND:                -0.501
REMARK SMILES O=C1O[C@H]([C@@H](O)[C@H](O)[C@H](O)CO)[C@@H](O)[C@H]1O
REMARK SMILES IDX 7 1 9 2 11 3 12 4 10 6 8 8 5 10 6 11 4 13 3 14 13 15 2 16
REMARK SMILES IDX 15 17 1 18 14 19 16 21
REMARK H PARENT 12 5 10 7 8 9 6 12 14 20 16 22
ROOT
ATOM      1  C   UNL     1     -26.355   4.688   9.818  1.00  0.00    +0.178 C 
ENDROOT
BRANCH   1   2
ATOM      2  C   UNL     1     -25.838   5.322   8.516  1.00  0.00    +0.171 C 
BRANCH   2   3
ATOM      3  C   UNL     1     -26.844   6.243   7.816  1.00  0.00    +0.190 C 
BRANCH   3   4
ATOM      4  O   UNL     1     -27.691   6.846   8.794  1.00  0.00    -0.394 OA
ATOM      5  H   UNL     1     -28.239   7.503   8.323  1.00  0.00    +0.210 HD
ENDBRANCH   3   4
ENDBRANCH   2   3
BRANCH   2   6
ATOM      6  O   UNL     1     -24.665   6.107   8.813  1.00  0.00    -0.388 OA
ATOM      7  H   UNL     1     -24.655   6.250   9.778  1.00  0.00    +0.211 HD
ENDBRANCH   2   6
ENDBRANCH   1   2
BRANCH   1   8
ATOM      8  O   UNL     1     -27.612   4.025   9.559  1.00  0.00    -0.387 OA
ATOM      9  H   UNL     1     -28.218   4.715   9.226  1.00  0.00    +0.211 HD
ENDBRANCH   1   8
BRANCH   1  10
ATOM     10  C   UNL     1     -25.415   3.648  10.464  1.00  0.00    +0.189 C 
BRANCH  10  11
ATOM     11  O   UNL     1     -24.187   4.319  10.785  1.00  0.00    -0.386 OA
ATOM     12  H   UNL     1     -23.518   3.946  10.173  1.00  0.00    +0.211 HD
ENDBRANCH  10  11
BRANCH  10  13
ATOM     13  C   UNL     1     -25.136   2.425   9.575  1.00  0.00    +0.239 C 
ATOM     14  O   UNL     1     -23.732   2.116   9.573  1.00  0.00    -0.455 OA
ATOM     15  C   UNL     1     -25.795   1.134  10.035  1.00  0.00    +0.198 C 
ATOM     16  C   UNL     1     -23.481   1.038  10.386  1.00  0.00    +0.338 C 
ATOM     17  C   UNL     1     -24.781   0.519  10.989  1.00  0.00    +0.256 C 
ATOM     18  O   UNL     1     -22.364   0.573  10.545  1.00  0.00    -0.249 OA
BRANCH  15  19
ATOM     19  O   UNL     1     -25.984   0.238   8.914  1.00  0.00    -0.386 OA
ATOM     20  H   UNL     1     -25.833  -0.680   9.209  1.00  0.00    +0.211 HD
ENDBRANCH  15  19
BRANCH  17  21
ATOM     21  O   UNL     1     -24.952  -0.885  11.080  1.00  0.00    -0.379 OA
ATOM     22  H   UNL     1     -24.571  -1.267  10.265  1.00  0.00    +0.211 HD
ENDBRANCH  17  21
ENDBRANCH  10  13
ENDBRANCH   1  10
TORSDOF 10
ENDMDL
MODEL 6
REMARK VINA RESULT:    -5.908      1.824      2.486
REMARK INTER + INTRA:          -8.827
REMARK INTER:                  -8.135
REMARK INTRA:                  -0.692
REMARK UNBOUND:                -0.501
REMARK SMILES O=C1O[C@H]([C@@H](O)[C@H](O)[C@H](O)CO)[C@@H](O)[C@H]1O
REMARK SMILES IDX 7 1 9 2 11 3 12 4 10 6 8 8 5 10 6 11 4 13 3 14 13 15 2 16
REMARK SMILES IDX 15 17 1 18 14 19 16 21
REMARK H PARENT 12 5 10 7 8 9 6 12 14 20 16 22
ROOT
ATOM      1  C   UNL     1     -24.192  -0.690  10.245  1.00  0.00    +0.178 C 
ENDROOT
BRANCH   1   2
ATOM      2  C   UNL     1     -24.492  -2.090   9.684  1.00  0.00    +0.171 C 
BRANCH   2   3
ATOM      3  C   UNL     1     -23.262  -2.997   9.548  1.00  0.00    +0.190 C 
BRANCH   3   4
ATOM      4  O   UNL     1     -22.711  -2.849   8.240  1.00  0.00    -0.394 OA
ATOM      5  H   UNL     1     -21.771  -3.108   8.302  1.00  0.00    +0.210 HD
ENDBRANCH   3   4
ENDBRANCH   2   3
BRANCH   2   6
ATOM      6  O   UNL     1     -25.424  -2.754  10.562  1.00  0.00    -0.388 OA
ATOM      7  H   UNL     1     -26.140  -2.119  10.750  1.00  0.00    +0.211 HD
ENDBRANCH   2   6
ENDBRANCH   1   2
BRANCH   1   8
ATOM      8  O   UNL     1     -23.081  -0.116   9.522  1.00  0.00    -0.387 OA
ATOM      9  H   UNL     1     -22.406  -0.819   9.459  1.00  0.00    +0.211 HD
ENDBRANCH   1   8
BRANCH   1  10
ATOM     10  C   UNL     1     -25.358   0.316  10.165  1.00  0.00    +0.189 C 
BRANCH  10  11
ATOM     11  O   UNL     1     -26.221  -0.108   9.099  1.00  0.00    -0.386 OA
ATOM     12  H   UNL     1     -26.004  -1.053   8.948  1.00  0.00    +0.211 HD
ENDBRANCH  10  11
BRANCH  10  13
ATOM     13  C   UNL     1     -24.910   1.770   9.938  1.00  0.00    +0.239 C 
ATOM     14  O   UNL     1     -25.863   2.467   9.117  1.00  0.00    -0.455 OA
ATOM     15  C   UNL     1     -24.822   2.618  11.198  1.00  0.00    +0.198 C 
ATOM     16  C   UNL     1     -26.646   3.287   9.891  1.00  0.00    +0.338 C 
ATOM     17  C   UNL     1     -26.220   3.201  11.351  1.00  0.00    +0.256 C 
ATOM     18  O   UNL     1     -27.526   3.995   9.425  1.00  0.00    -0.249 OA
BRANCH  15  19
ATOM     19  O   UNL     1     -23.882   3.702  11.011  1.00  0.00    -0.386 OA
ATOM     20  H   UNL     1     -24.265   4.524  11.373  1.00  0.00    +0.211 HD
ENDBRANCH  15  19
BRANCH  17  21
ATOM     21  O   UNL     1     -26.192   4.403  12.103  1.00  0.00    -0.379 OA
ATOM     22  H   UNL     1     -26.430   4.164  13.020  1.00  0.00    +0.211 HD
ENDBRANCH  17  21
ENDBRANCH  10  13
ENDBRANCH   1  10
TORSDOF 10
ENDMDL
MODEL 7
REMARK VINA RESULT:    -5.898      1.601      2.839
REMARK INTER + INTRA:          -8.813
REMARK INTER:                  -8.160
REMARK INTRA:                  -0.653
REMARK UNBOUND:                -0.501
REMARK SMILES O=C1O[C@H]([C@@H](O)[C@H](O)[C@H](O)CO)[C@@H](O)[C@H]1O
REMARK SMILES IDX 7 1 9 2 11 3 12 4 10 6 8 8 5 10 6 11 4 13 3 14 13 15 2 16
REMARK SMILES IDX 15 17 1 18 14 19 16 21
REMARK H PARENT 12 5 10 7 8 9 6 12 14 20 16 22
ROOT
ATOM      1  C   UNL     1     -24.321   0.076  10.912  1.00  0.00    +0.178 C 
ENDROOT
BRANCH   1   2
ATOM      2  C   UNL     1     -23.390  -0.672   9.943  1.00  0.00    +0.171 C 
BRANCH   2   3
ATOM      3  C   UNL     1     -22.097   0.078   9.599  1.00  0.00    +0.190 C 
BRANCH   3   4
ATOM      4  O   UNL     1     -22.395   1.140   8.694  1.00  0.00    -0.394 OA
ATOM      5  H   UNL     1     -23.256   1.511   8.972  1.00  0.00    +0.210 HD
ENDBRANCH   3   4
ENDBRANCH   2   3
BRANCH   2   6
ATOM      6  O   UNL     1     -23.015  -1.932  10.536  1.00  0.00    -0.388 OA
ATOM      7  H   UNL     1     -23.430  -1.967  11.418  1.00  0.00    +0.211 HD
ENDBRANCH   2   6
ENDBRANCH   1   2
BRANCH   1   8
ATOM      8  O   UNL     1     -23.530   0.923  11.774  1.00  0.00    -0.387 OA
ATOM      9  H   UNL     1     -23.603   1.826  11.408  1.00  0.00    +0.211 HD
ENDBRANCH   1   8
BRANCH   1  10
ATOM     10  C   UNL     1     -25.386   0.970  10.246  1.00  0.00    +0.189 C 
BRANCH  10  11
ATOM     11  O   UNL     1     -25.241   0.827   8.825  1.00  0.00    -0.386 OA
ATOM     12  H   UNL     1     -24.648   0.056   8.699  1.00  0.00    +0.211 HD
ENDBRANCH  10  11
BRANCH  10  13
ATOM     13  C   UNL     1     -25.290   2.453  10.643  1.00  0.00    +0.239 C 
ATOM     14  O   UNL     1     -24.579   3.196   9.638  1.00  0.00    -0.455 OA
ATOM     15  C   UNL     1     -26.624   3.174  10.757  1.00  0.00    +0.198 C 
ATOM     16  C   UNL     1     -25.460   3.910   8.863  1.00  0.00    +0.338 C 
ATOM     17  C   UNL     1     -26.887   3.694   9.350  1.00  0.00    +0.256 C 
ATOM     18  O   UNL     1     -25.101   4.631   7.945  1.00  0.00    -0.249 OA
BRANCH  15  19
ATOM     19  O   UNL     1     -26.512   4.301  11.657  1.00  0.00    -0.386 OA
ATOM     20  H   UNL     1     -26.383   3.973  12.567  1.00  0.00    +0.211 HD
ENDBRANCH  15  19
BRANCH  17  21
ATOM     21  O   UNL     1     -27.754   4.815   9.374  1.00  0.00    -0.379 OA
ATOM     22  H   UNL     1     -27.189   5.603   9.495  1.00  0.00    +0.211 HD
ENDBRANCH  17  21
ENDBRANCH  10  13
ENDBRANCH   1  10
TORSDOF 10
ENDMDL
MODEL 8
REMARK VINA RESULT:    -5.876      9.602     11.741
REMARK INTER + INTRA:          -8.781
REMARK INTER:                  -8.094
REMARK INTRA:                  -0.687
REMARK UNBOUND:                -0.501
REMARK SMILES O=C1O[C@H]([C@@H](O)[C@H](O)[C@H](O)CO)[C@@H](O)[C@H]1O
REMARK SMILES IDX 7 1 9 2 11 3 12 4 10 6 8 8 5 10 6 11 4 13 3 14 13 15 2 16
REMARK SMILES IDX 15 17 1 18 14 19 16 21
REMARK H PARENT 12 5 10 7 8 9 6 12 14 20 16 22
ROOT
ATOM      1  C   UNL     1     -34.171   4.555   8.282  1.00  0.00    +0.178 C 
ENDROOT
BRANCH   1   2
ATOM      2  C   UNL     1     -33.453   4.305   9.618  1.00  0.00    +0.171 C 
BRANCH   2   3
ATOM      3  C   UNL     1     -32.249   3.359   9.525  1.00  0.00    +0.190 C 
BRANCH   3   4
ATOM      4  O   UNL     1     -32.714   2.021   9.358  1.00  0.00    -0.394 OA
ATOM      5  H   UNL     1     -31.969   1.434   9.592  1.00  0.00    +0.210 HD
ENDBRANCH   3   4
ENDBRANCH   2   3
BRANCH   2   6
ATOM      6  O   UNL     1     -32.975   5.565  10.133  1.00  0.00    -0.388 OA
ATOM      7  H   UNL     1     -32.429   5.970   9.433  1.00  0.00    +0.211 HD
ENDBRANCH   2   6
ENDBRANCH   1   2
BRANCH   1   8
ATOM      8  O   UNL     1     -34.490   3.286   7.669  1.00  0.00    -0.387 OA
ATOM      9  H   UNL     1     -35.378   3.391   7.275  1.00  0.00    +0.211 HD
ENDBRANCH   1   8
BRANCH   1  10
ATOM     10  C   UNL     1     -35.485   5.358   8.378  1.00  0.00    +0.189 C 
BRANCH  10  11
ATOM     11  O   UNL     1     -35.148   6.749   8.260  1.00  0.00    -0.386 OA
ATOM     12  H   UNL     1     -35.984   7.235   8.424  1.00  0.00    +0.211 HD
ENDBRANCH  10  11
BRANCH  10  13
ATOM     13  C   UNL     1     -36.271   5.110   9.677  1.00  0.00    +0.239 C 
ATOM     14  O   UNL     1     -36.996   6.292  10.058  1.00  0.00    -0.455 OA
ATOM     15  C   UNL     1     -37.344   4.036   9.581  1.00  0.00    +0.198 C 
ATOM     16  C   UNL     1     -38.325   6.157   9.740  1.00  0.00    +0.338 C 
ATOM     17  C   UNL     1     -38.583   4.790   9.118  1.00  0.00    +0.256 C 
ATOM     18  O   UNL     1     -39.153   7.023   9.973  1.00  0.00    -0.249 OA
BRANCH  15  19
ATOM     19  O   UNL     1     -37.604   3.467  10.886  1.00  0.00    -0.386 OA
ATOM     20  H   UNL     1     -38.568   3.451  11.042  1.00  0.00    +0.211 HD
ENDBRANCH  15  19
BRANCH  17  21
ATOM     21  O   UNL     1     -39.766   4.106   9.495  1.00  0.00    -0.379 OA
ATOM     22  H   UNL     1     -39.505   3.442  10.162  1.00  0.00    +0.211 HD
ENDBRANCH  17  21
ENDBRANCH  10  13
ENDBRANCH   1  10
TORSDOF 10
ENDMDL
MODEL 9
REMARK VINA RESULT:    -5.807      9.684     11.301
REMARK INTER + INTRA:          -8.685
REMARK INTER:                  -8.329
REMARK INTRA:                  -0.356
REMARK UNBOUND:                -0.501
REMARK SMILES O=C1O[C@H]([C@@H](O)[C@H](O)[C@H](O)CO)[C@@H](O)[C@H]1O
REMARK SMILES IDX 7 1 9 2 11 3 12 4 10 6 8 8 5 10 6 11 4 13 3 14 13 15 2 16
REMARK SMILES IDX 15 17 1 18 14 19 16 21
REMARK H PARENT 12 5 10 7 8 9 6 12 14 20 16 22
ROOT
ATOM      1  C   UNL     1     -33.508   6.765   7.560  1.00  0.00    +0.178 C 
ENDROOT
BRANCH   1   2
ATOM      2  C   UNL     1     -32.926   6.494   6.162  1.00  0.00    +0.171 C 
BRANCH   2   3
ATOM      3  C   UNL     1     -33.898   5.811   5.191  1.00  0.00    +0.190 C 
BRANCH   3   4
ATOM      4  O   UNL     1     -34.680   6.806   4.531  1.00  0.00    -0.394 OA
ATOM      5  H   UNL     1     -34.886   7.489   5.199  1.00  0.00    +0.210 HD
ENDBRANCH   3   4
ENDBRANCH   2   3
BRANCH   2   6
ATOM      6  O   UNL     1     -32.532   7.748   5.570  1.00  0.00    -0.388 OA
ATOM      7  H   UNL     1     -31.666   7.984   5.951  1.00  0.00    +0.211 HD
ENDBRANCH   2   6
ENDBRANCH   1   2
BRANCH   1   8
ATOM      8  O   UNL     1     -34.007   8.119   7.613  1.00  0.00    -0.387 OA
ATOM      9  H   UNL     1     -33.995   8.449   6.693  1.00  0.00    +0.211 HD
ENDBRANCH   1   8
BRANCH   1  10
ATOM     10  C   UNL     1     -34.663   5.835   7.986  1.00  0.00    +0.189 C 
BRANCH  10  11
ATOM     11  O   UNL     1     -35.649   6.647   8.641  1.00  0.00    -0.386 OA
ATOM     12  H   UNL     1     -35.749   6.264   9.538  1.00  0.00    +0.211 HD
ENDBRANCH  10  11
BRANCH  10  13
ATOM     13  C   UNL     1     -34.226   4.684   8.907  1.00  0.00    +0.239 C 
ATOM     14  O   UNL     1     -35.072   4.621  10.068  1.00  0.00    -0.455 OA
ATOM     15  C   UNL     1     -34.340   3.295   8.295  1.00  0.00    +0.198 C 
ATOM     16  C   UNL     1     -35.979   3.597   9.940  1.00  0.00    +0.338 C 
ATOM     17  C   UNL     1     -35.760   2.859   8.625  1.00  0.00    +0.256 C 
ATOM     18  O   UNL     1     -36.803   3.331  10.801  1.00  0.00    -0.249 OA
BRANCH  15  19
ATOM     19  O   UNL     1     -33.412   2.387   8.933  1.00  0.00    -0.386 OA
ATOM     20  H   UNL     1     -32.885   2.877   9.593  1.00  0.00    +0.211 HD
ENDBRANCH  15  19
BRANCH  17  21
ATOM     21  O   UNL     1     -35.871   1.446   8.635  1.00  0.00    -0.379 OA
ATOM     22  H   UNL     1     -36.807   1.240   8.824  1.00  0.00    +0.211 HD
ENDBRANCH  17  21
ENDBRANCH  10  13
ENDBRANCH   1  10
TORSDOF 10
ENDMDL
