MODEL 1
REMARK VINA RESULT:    -6.893      0.000      0.000
REMARK INTER + INTRA:          -8.371
REMARK INTER:                  -8.102
REMARK INTRA:                  -0.269
REMARK UNBOUND:                -0.269
REMARK SMILES N#CSCC(=O)c1ccccc1
REMARK SMILES IDX 6 1 5 2 4 3 3 4 2 5 1 6 7 7 8 8 12 9 9 10 11 11 10 12
REMARK H PARENT
ROOT
ATOM      1  O   UNL     1     -26.492   9.210   4.452  1.00  0.00    -0.293 OA
ATOM      2  C   UNL     1     -26.502   9.765   5.551  1.00  0.00    +0.173 C 
ENDROOT
BRANCH   2   3
ATOM      3  C   UNL     1     -25.315   9.698   6.494  1.00  0.00    +0.167 C 
BRANCH   3   4
ATOM      4  S   UNL     1     -24.609   8.026   6.543  1.00  0.00    -0.038 SA
ATOM      5  C   UNL     1     -25.881   7.260   7.345  1.00  0.00    +0.133 C 
ATOM      6  N   UNL     1     -26.796   6.779   7.871  1.00  0.00    -0.185 NA
ENDBRANCH   3   4
ENDBRANCH   2   3
BRANCH   2   7
ATOM      7  C   UNL     1     -27.746  10.458   5.991  1.00  0.00    +0.018 A 
ATOM      8  C   UNL     1     -28.000  11.738   5.483  1.00  0.00    +0.012 A 
ATOM      9  C   UNL     1     -28.642   9.886   6.903  1.00  0.00    +0.012 A 
ATOM     10  C   UNL     1     -29.152  12.430   5.860  1.00  0.00    +0.001 A 
ATOM     11  C   UNL     1     -29.794  10.585   7.279  1.00  0.00    +0.001 A 
ATOM     12  C   UNL     1     -30.049  11.851   6.755  1.00  0.00    +0.000 A 
ENDBRANCH   2   7
TORSDOF 3
ENDMDL
MODEL 2
REMARK VINA RESULT:    -6.086      4.140      5.162
REMARK INTER + INTRA:          -7.422
REMARK INTER:                  -7.327
REMARK INTRA:                  -0.095
REMARK UNBOUND:                -0.269
REMARK SMILES N#CSCC(=O)c1ccccc1
REMARK SMILES IDX 6 1 5 2 4 3 3 4 2 5 1 6 7 7 8 8 12 9 9 10 11 11 10 12
REMARK H PARENT
ROOT
ATOM      1  O   UNL     1     -32.272  10.711   8.380  1.00  0.00    -0.293 OA
ATOM      2  C   UNL     1     -31.608   9.946   7.681  1.00  0.00    +0.173 C 
ENDROOT
BRANCH   2   3
ATOM      3  C   UNL     1     -31.985   8.486   7.509  1.00  0.00    +0.167 C 
BRANCH   3   4
ATOM      4  S   UNL     1     -32.157   8.054   5.754  1.00  0.00    -0.038 SA
ATOM      5  C   UNL     1     -33.169   6.718   5.941  1.00  0.00    +0.133 C 
ATOM      6  N   UNL     1     -33.888   5.827   6.126  1.00  0.00    -0.185 NA
ENDBRANCH   3   4
ENDBRANCH   2   3
BRANCH   2   7
ATOM      7  C   UNL     1     -30.360  10.457   7.048  1.00  0.00    +0.018 A 
ATOM      8  C   UNL     1     -30.400  11.717   6.438  1.00  0.00    +0.012 A 
ATOM      9  C   UNL     1     -29.171   9.717   7.024  1.00  0.00    +0.012 A 
ATOM     10  C   UNL     1     -29.259  12.245   5.833  1.00  0.00    +0.001 A 
ATOM     11  C   UNL     1     -28.031  10.249   6.414  1.00  0.00    +0.001 A 
ATOM     12  C   UNL     1     -28.074  11.511   5.825  1.00  0.00    +0.000 A 
ENDBRANCH   2   7
TORSDOF 3
ENDMDL
MODEL 3
REMARK VINA RESULT:    -5.924      1.474      2.122
REMARK INTER + INTRA:          -7.232
REMARK INTER:                  -7.134
REMARK INTRA:                  -0.098
REMARK UNBOUND:                -0.269
REMARK SMILES N#CSCC(=O)c1ccccc1
REMARK SMILES IDX 6 1 5 2 4 3 3 4 2 5 1 6 7 7 8 8 12 9 9 10 11 11 10 12
REMARK H PARENT
ROOT
ATOM      1  O   UNL     1     -27.232   8.638   5.040  1.00  0.00    -0.293 OA
ATOM      2  C   UNL     1     -27.632   8.676   6.204  1.00  0.00    +0.173 C 
ENDROOT
BRANCH   2   3
ATOM      3  C   UNL     1     -27.067   7.763   7.277  1.00  0.00    +0.167 C 
BRANCH   3   4
ATOM      4  S   UNL     1     -25.342   7.323   6.923  1.00  0.00    -0.038 SA
ATOM      5  C   UNL     1     -25.331   5.810   7.668  1.00  0.00    +0.133 C 
ATOM      6  N   UNL     1     -25.388   4.764   8.167  1.00  0.00    -0.185 NA
ENDBRANCH   3   4
ENDBRANCH   2   3
BRANCH   2   7
ATOM      7  C   UNL     1     -28.753   9.597   6.545  1.00  0.00    +0.018 A 
ATOM      8  C   UNL     1     -29.929   9.037   7.059  1.00  0.00    +0.012 A 
ATOM      9  C   UNL     1     -28.677  10.981   6.347  1.00  0.00    +0.012 A 
ATOM     10  C   UNL     1     -31.010   9.852   7.397  1.00  0.00    +0.001 A 
ATOM     11  C   UNL     1     -29.762  11.794   6.686  1.00  0.00    +0.001 A 
ATOM     12  C   UNL     1     -30.923  11.232   7.214  1.00  0.00    +0.000 A 
ENDBRANCH   2   7
TORSDOF 3
ENDMDL
MODEL 4
REMARK VINA RESULT:    -5.825      4.236      5.113
REMARK INTER + INTRA:          -7.116
REMARK INTER:                  -7.014
REMARK INTRA:                  -0.102
REMARK UNBOUND:                -0.269
REMARK SMILES N#CSCC(=O)c1ccccc1
REMARK SMILES IDX 6 1 5 2 4 3 3 4 2 5 1 6 7 7 8 8 12 9 9 10 11 11 10 12
REMARK H PARENT
ROOT
ATOM      1  O   UNL     1     -30.959   9.972   7.389  1.00  0.00    -0.293 OA
ATOM      2  C   UNL     1     -30.594   8.843   7.059  1.00  0.00    +0.173 C 
ENDROOT
BRANCH   2   3
ATOM      3  C   UNL     1     -29.128   8.493   6.882  1.00  0.00    +0.167 C 
BRANCH   3   4
ATOM      4  S   UNL     1     -28.100   9.988   6.821  1.00  0.00    -0.038 SA
ATOM      5  C   UNL     1     -27.168   9.574   5.476  1.00  0.00    +0.133 C 
ATOM      6  N   UNL     1     -26.579   9.253   4.531  1.00  0.00    -0.185 NA
ENDBRANCH   3   4
ENDBRANCH   2   3
BRANCH   2   7
ATOM      7  C   UNL     1     -31.631   7.818   6.752  1.00  0.00    +0.018 A 
ATOM      8  C   UNL     1     -32.196   7.817   5.470  1.00  0.00    +0.012 A 
ATOM      9  C   UNL     1     -32.070   6.886   7.700  1.00  0.00    +0.012 A 
ATOM     10  C   UNL     1     -33.169   6.877   5.129  1.00  0.00    +0.001 A 
ATOM     11  C   UNL     1     -33.047   5.947   7.354  1.00  0.00    +0.001 A 
ATOM     12  C   UNL     1     -33.591   5.940   6.071  1.00  0.00    +0.000 A 
ENDBRANCH   2   7
TORSDOF 3
ENDMDL
MODEL 5
REMARK VINA RESULT:    -5.603      7.759      8.881
REMARK INTER + INTRA:          -6.855
REMARK INTER:                  -6.747
REMARK INTRA:                  -0.108
REMARK UNBOUND:                -0.269
REMARK SMILES N#CSCC(=O)c1ccccc1
REMARK SMILES IDX 6 1 5 2 4 3 3 4 2 5 1 6 7 7 8 8 12 9 9 10 11 11 10 12
REMARK H PARENT
ROOT
ATOM      1  O   UNL     1     -32.860   4.901   9.423  1.00  0.00    -0.293 OA
ATOM      2  C   UNL     1     -33.745   5.306   8.669  1.00  0.00    +0.173 C 
ENDROOT
BRANCH   2   3
ATOM      3  C   UNL     1     -35.215   5.051   8.947  1.00  0.00    +0.167 C 
BRANCH   3   4
ATOM      4  S   UNL     1     -35.558   5.064  10.729  1.00  0.00    -0.038 SA
ATOM      5  C   UNL     1     -36.961   6.000  10.690  1.00  0.00    +0.133 C 
ATOM      6  N   UNL     1     -37.937   6.620  10.601  1.00  0.00    -0.185 NA
ENDBRANCH   3   4
ENDBRANCH   2   3
BRANCH   2   7
ATOM      7  C   UNL     1     -33.350   6.000   7.411  1.00  0.00    +0.018 A 
ATOM      8  C   UNL     1     -32.264   6.884   7.462  1.00  0.00    +0.012 A 
ATOM      9  C   UNL     1     -34.034   5.816   6.204  1.00  0.00    +0.012 A 
ATOM     10  C   UNL     1     -31.850   7.559   6.313  1.00  0.00    +0.001 A 
ATOM     11  C   UNL     1     -33.617   6.496   5.055  1.00  0.00    +0.001 A 
ATOM     12  C   UNL     1     -32.525   7.361   5.109  1.00  0.00    +0.000 A 
ENDBRANCH   2   7
TORSDOF 3
ENDMDL
MODEL 6
REMARK VINA RESULT:    -5.397     14.161     14.749
REMARK INTER + INTRA:          -6.613
REMARK INTER:                  -6.537
REMARK INTRA:                  -0.075
REMARK UNBOUND:                -0.269
REMARK SMILES N#CSCC(=O)c1ccccc1
REMARK SMILES IDX 6 1 5 2 4 3 3 4 2 5 1 6 7 7 8 8 12 9 9 10 11 11 10 12
REMARK H PARENT
ROOT
ATOM      1  O   UNL     1     -34.782  -2.602   0.131  1.00  0.00    -0.293 OA
ATOM      2  C   UNL     1     -33.866  -1.945  -0.364  1.00  0.00    +0.173 C 
ENDROOT
BRANCH   2   3
ATOM      3  C   UNL     1     -33.146  -2.394  -1.622  1.00  0.00    +0.167 C 
BRANCH   3   4
ATOM      4  S   UNL     1     -34.023  -1.841  -3.112  1.00  0.00    -0.038 SA
ATOM      5  C   UNL     1     -33.978  -3.297  -3.962  1.00  0.00    +0.133 C 
ATOM      6  N   UNL     1     -33.946  -4.330  -4.489  1.00  0.00    -0.185 NA
ENDBRANCH   3   4
ENDBRANCH   2   3
BRANCH   2   7
ATOM      7  C   UNL     1     -33.407  -0.714   0.340  1.00  0.00    +0.018 A 
ATOM      8  C   UNL     1     -33.500   0.506  -0.341  1.00  0.00    +0.012 A 
ATOM      9  C   UNL     1     -32.871  -0.743   1.633  1.00  0.00    +0.012 A 
ATOM     10  C   UNL     1     -33.086   1.689   0.272  1.00  0.00    +0.001 A 
ATOM     11  C   UNL     1     -32.456   0.445   2.243  1.00  0.00    +0.001 A 
ATOM     12  C   UNL     1     -32.568   1.658   1.565  1.00  0.00    +0.000 A 
ENDBRANCH   2   7
TORSDOF 3
ENDMDL
MODEL 7
REMARK VINA RESULT:    -5.182      8.940      9.948
REMARK INTER + INTRA:          -6.360
REMARK INTER:                  -6.088
REMARK INTRA:                  -0.272
REMARK UNBOUND:                -0.269
REMARK SMILES N#CSCC(=O)c1ccccc1
REMARK SMILES IDX 6 1 5 2 4 3 3 4 2 5 1 6 7 7 8 8 12 9 9 10 11 11 10 12
REMARK H PARENT
ROOT
ATOM      1  O   UNL     1     -27.000   3.817  10.655  1.00  0.00    -0.293 OA
ATOM      2  C   UNL     1     -26.809   2.858  11.404  1.00  0.00    +0.173 C 
ENDROOT
BRANCH   2   3
ATOM      3  C   UNL     1     -25.413   2.357  11.726  1.00  0.00    +0.167 C 
BRANCH   3   4
ATOM      4  S   UNL     1     -24.451   2.075  10.213  1.00  0.00    -0.038 SA
ATOM      5  C   UNL     1     -25.404   0.846   9.558  1.00  0.00    +0.133 C 
ATOM      6  N   UNL     1     -26.111   0.028   9.139  1.00  0.00    -0.185 NA
ENDBRANCH   3   4
ENDBRANCH   2   3
BRANCH   2   7
ATOM      7  C   UNL     1     -27.990   2.127  11.944  1.00  0.00    +0.018 A 
ATOM      8  C   UNL     1     -28.061   1.927  13.329  1.00  0.00    +0.012 A 
ATOM      9  C   UNL     1     -29.002   1.620  11.121  1.00  0.00    +0.012 A 
ATOM     10  C   UNL     1     -29.146   1.251  13.889  1.00  0.00    +0.001 A 
ATOM     11  C   UNL     1     -30.087   0.942  11.686  1.00  0.00    +0.001 A 
ATOM     12  C   UNL     1     -30.160   0.763  13.066  1.00  0.00    +0.000 A 
ENDBRANCH   2   7
TORSDOF 3
ENDMDL
MODEL 8
REMARK VINA RESULT:    -5.175      7.599      8.517
REMARK INTER + INTRA:          -6.352
REMARK INTER:                  -6.094
REMARK INTRA:                  -0.258
REMARK UNBOUND:                -0.269
REMARK SMILES N#CSCC(=O)c1ccccc1
REMARK SMILES IDX 6 1 5 2 4 3 3 4 2 5 1 6 7 7 8 8 12 9 9 10 11 11 10 12
REMARK H PARENT
ROOT
ATOM      1  O   UNL     1     -35.000   5.096   9.474  1.00  0.00    -0.293 OA
ATOM      2  C   UNL     1     -34.553   4.613   8.434  1.00  0.00    +0.173 C 
ENDROOT
BRANCH   2   3
ATOM      3  C   UNL     1     -34.686   3.135   8.114  1.00  0.00    +0.167 C 
BRANCH   3   4
ATOM      4  S   UNL     1     -34.202   2.111   9.533  1.00  0.00    -0.038 SA
ATOM      5  C   UNL     1     -32.572   2.544   9.587  1.00  0.00    +0.133 C 
ATOM      6  N   UNL     1     -31.469   2.900   9.598  1.00  0.00    -0.185 NA
ENDBRANCH   3   4
ENDBRANCH   2   3
BRANCH   2   7
ATOM      7  C   UNL     1     -33.797   5.496   7.502  1.00  0.00    +0.018 A 
ATOM      8  C   UNL     1     -34.187   5.519   6.157  1.00  0.00    +0.012 A 
ATOM      9  C   UNL     1     -32.709   6.273   7.919  1.00  0.00    +0.012 A 
ATOM     10  C   UNL     1     -33.515   6.330   5.242  1.00  0.00    +0.001 A 
ATOM     11  C   UNL     1     -32.037   7.082   6.998  1.00  0.00    +0.001 A 
ATOM     12  C   UNL     1     -32.442   7.114   5.665  1.00  0.00    +0.000 A 
ENDBRANCH   2   7
TORSDOF 3
ENDMDL
MODEL 9
REMARK VINA RESULT:    -5.156      9.504     10.660
REMARK INTER + INTRA:          -6.330
REMARK INTER:                  -6.209
REMARK INTRA:                  -0.121
REMARK UNBOUND:                -0.269
REMARK SMILES N#CSCC(=O)c1ccccc1
REMARK SMILES IDX 6 1 5 2 4 3 3 4 2 5 1 6 7 7 8 8 12 9 9 10 11 11 10 12
REMARK H PARENT
ROOT
ATOM      1  O   UNL     1     -35.488   6.636   7.996  1.00  0.00    -0.293 OA
ATOM      2  C   UNL     1     -35.466   5.483   8.426  1.00  0.00    +0.173 C 
ENDROOT
BRANCH   2   3
ATOM      3  C   UNL     1     -34.324   4.532   8.114  1.00  0.00    +0.167 C 
BRANCH   3   4
ATOM      4  S   UNL     1     -32.990   4.685   9.336  1.00  0.00    -0.038 SA
ATOM      5  C   UNL     1     -32.575   3.053   9.432  1.00  0.00    +0.133 C 
ATOM      6  N   UNL     1     -32.310   1.924   9.436  1.00  0.00    -0.185 NA
ENDBRANCH   3   4
ENDBRANCH   2   3
BRANCH   2   7
ATOM      7  C   UNL     1     -36.632   4.990   9.212  1.00  0.00    +0.018 A 
ATOM      8  C   UNL     1     -36.509   3.758   9.867  1.00  0.00    +0.012 A 
ATOM      9  C   UNL     1     -37.836   5.699   9.295  1.00  0.00    +0.012 A 
ATOM     10  C   UNL     1     -37.569   3.250  10.619  1.00  0.00    +0.001 A 
ATOM     11  C   UNL     1     -38.897   5.185  10.048  1.00  0.00    +0.001 A 
ATOM     12  C   UNL     1     -38.761   3.967  10.712  1.00  0.00    +0.000 A 
ENDBRANCH   2   7
TORSDOF 3
ENDMDL
