REMARK SMILES O=C1CC=NC(=S)N1
REMARK SMILES IDX 1 1 2 2 3 3 4 4 5 5 6 6 7 7 8 8
REMARK H PARENT 8 9
ROOT
ATOM      1  O   UNL     1      -0.717   2.254  -0.548  1.00  0.00    -0.274 OA
ATOM      2  C   UNL     1      -0.335   1.122  -0.267  1.00  0.00    +0.231 C 
ATOM      3  C   UNL     1      -1.238  -0.064  -0.317  1.00  0.00    +0.148 C 
ATOM      4  C   UNL     1      -0.570  -1.337   0.062  1.00  0.00    +0.097 C 
ATOM      5  N   UNL     1       0.669  -1.450   0.407  1.00  0.00    -0.233 NA
ATOM      6  C   UNL     1       1.474  -0.345   0.444  1.00  0.00    +0.199 C 
ATOM      7  S   UNL     1       3.091  -0.401   0.881  1.00  0.00    -0.038 S 
ATOM      8  N   UNL     1       0.951   0.876   0.112  1.00  0.00    -0.301 N 
ATOM      9  H   UNL     1       1.573   1.671   0.150  1.00  0.00    +0.172 HD
ENDROOT
TORSDOF 0
