REMARK SMILES Nc1cc(Cl)c(S(=O)(=O)O)cc1Cl
REMARK SMILES IDX 2 1 3 2 4 3 6 4 11 5 12 6 13 7 5 8 1 9 7 12 8 13 9 14 10 15
REMARK H PARENT 1 10 1 11 10 16
ROOT
ATOM      1  C   UNL     1      -1.677   0.203   0.917  1.00  0.00    +0.052 A 
ATOM      2  C   UNL     1      -1.544   0.835  -0.325  1.00  0.00    +0.049 A 
ATOM      3  C   UNL     1      -0.370   0.709  -1.081  1.00  0.00    +0.064 A 
ATOM      4  C   UNL     1       0.699  -0.026  -0.570  1.00  0.00    +0.114 A 
ATOM      5  C   UNL     1       0.606  -0.627   0.691  1.00  0.00    +0.047 A 
ATOM      6  C   UNL     1      -0.569  -0.493   1.432  1.00  0.00    +0.065 A 
ATOM      7 Cl   UNL     1      -0.642  -1.234   2.993  1.00  0.00    -0.082 Cl
ATOM      8 Cl   UNL     1      -0.337   1.499  -2.616  1.00  0.00    -0.083 Cl
ENDROOT
BRANCH   1   9
ATOM      9  N   UNL     1      -2.818   0.461   1.695  1.00  0.00    -0.397 N 
ATOM     10  H   UNL     1      -2.947  -0.208   2.453  1.00  0.00    +0.156 HD
ATOM     11  H   UNL     1      -3.670   0.626   1.168  1.00  0.00    +0.156 HD
ENDBRANCH   1   9
BRANCH   4  12
ATOM     12  S   UNL     1       2.186  -0.200  -1.499  1.00  0.00    +0.296 S 
ATOM     13  O   UNL     1       1.906  -1.042  -2.640  1.00  0.00    -0.194 OA
ATOM     14  O   UNL     1       2.800   1.103  -1.626  1.00  0.00    -0.194 OA
BRANCH  12  15
ATOM     15  O   UNL     1       3.194  -1.038  -0.556  1.00  0.00    -0.282 OA
ATOM     16  H   UNL     1       4.109  -0.812  -0.829  1.00  0.00    +0.234 HD
ENDBRANCH  12  15
ENDBRANCH   4  12
TORSDOF 3
