REMARK SMILES Nc1ccc(I)cc1C(=O)O
REMARK SMILES IDX 2 1 8 2 7 3 5 4 6 5 4 6 3 7 1 8 9 11 10 12 11 13
REMARK H PARENT 1 9 1 10 11 14
ROOT
ATOM      1  C   UNL     1      -0.172   1.000   0.070  1.00  0.00    +0.046 A 
ATOM      2  C   UNL     1      -0.445  -0.383  -0.017  1.00  0.00    +0.083 A 
ATOM      3  C   UNL     1       0.607  -1.305  -0.154  1.00  0.00    +0.032 A 
ATOM      4  C   UNL     1       1.927  -0.859  -0.169  1.00  0.00    +0.014 A 
ATOM      5  I   UNL     1       3.479  -2.226  -0.369  1.00  0.00    -0.044 I 
ATOM      6  C   UNL     1       2.212   0.497  -0.038  1.00  0.00    +0.017 A 
ATOM      7  C   UNL     1       1.167   1.415   0.098  1.00  0.00    +0.027 A 
ENDROOT
BRANCH   1   8
ATOM      8  N   UNL     1      -1.165   1.955   0.352  1.00  0.00    -0.398 N 
ATOM      9  H   UNL     1      -2.106   1.643   0.089  1.00  0.00    +0.156 HD
ATOM     10  H   UNL     1      -0.963   2.891   0.017  1.00  0.00    +0.156 HD
ENDBRANCH   1   8
BRANCH   2  11
ATOM     11  C   UNL     1      -1.853  -0.862  -0.016  1.00  0.00    +0.337 C 
ATOM     12  O   UNL     1      -2.849  -0.174  -0.164  1.00  0.00    -0.246 OA
BRANCH  11  13
ATOM     13  O   UNL     1      -1.955  -2.192   0.170  1.00  0.00    -0.478 OA
ATOM     14  H   UNL     1      -2.921  -2.358   0.167  1.00  0.00    +0.297 HD
ENDBRANCH  11  13
ENDBRANCH   2  11
TORSDOF 3
