REMARK SMILES Brc1cccc(Nc2ncnc3c2cnn3-c2ccccc2)c1
REMARK SMILES IDX 7 1 6 3 2 4 3 5 23 6 4 7 5 8 1 9 8 10 13 11 9 12 14 13 12 14
REMARK SMILES IDX 10 15 15 16 16 17 11 18 17 19 18 20 22 21 19 22 21 23 20 24
REMARK H PARENT 7 2
ROOT
ATOM      1  N   UNL     1      -2.627   0.035  -1.461  1.00  0.00    -0.339 N 
ATOM      2  H   UNL     1      -3.147   0.607  -2.124  1.00  0.00    +0.168 HD
ENDROOT
BRANCH   1   3
ATOM      3  C   UNL     1      -3.441  -0.329  -0.368  1.00  0.00    +0.041 A 
ATOM      4  C   UNL     1      -5.407  -1.509   0.433  1.00  0.00    +0.020 A 
ATOM      5  C   UNL     1      -5.166  -1.066   1.731  1.00  0.00    +0.016 A 
ATOM      6  C   UNL     1      -4.558  -1.140  -0.611  1.00  0.00    +0.041 A 
ATOM      7  C   UNL     1      -4.072  -0.242   1.982  1.00  0.00    +0.003 A 
ATOM      8  C   UNL     1      -3.219   0.129   0.937  1.00  0.00    +0.026 A 
ATOM      9 Br   UNL     1      -6.897  -2.618   0.083  1.00  0.00    -0.051 Br
ENDBRANCH   1   3
BRANCH   1  10
ATOM     10  C   UNL     1      -1.315   0.530  -1.439  1.00  0.00    +0.144 A 
ATOM     11  C   UNL     1      -0.263  -0.013  -0.690  1.00  0.00    +0.082 A 
ATOM     12  N   UNL     1      -1.045   1.577  -2.252  1.00  0.00    -0.218 NA
ATOM     13  C   UNL     1      -0.071  -1.087   0.193  1.00  0.00    +0.150 A 
ATOM     14  C   UNL     1       0.984   0.585  -0.792  1.00  0.00    +0.168 A 
ATOM     15  C   UNL     1       0.205   2.073  -2.268  1.00  0.00    +0.226 A 
ATOM     16  N   UNL     1       1.175  -1.168   0.654  1.00  0.00    -0.174 NA
ATOM     17  N   UNL     1       1.839  -0.134   0.046  1.00  0.00    -0.215 N 
ATOM     18  N   UNL     1       1.268   1.651  -1.570  1.00  0.00    -0.216 NA
BRANCH  17  19
ATOM     19  C   UNL     1       3.226   0.070   0.322  1.00  0.00    +0.067 A 
ATOM     20  C   UNL     1       3.956   1.112  -0.263  1.00  0.00    +0.028 A 
ATOM     21  C   UNL     1       3.882  -0.802   1.210  1.00  0.00    +0.028 A 
ATOM     22  C   UNL     1       5.313   1.278   0.035  1.00  0.00    +0.002 A 
ATOM     23  C   UNL     1       5.238  -0.632   1.503  1.00  0.00    +0.002 A 
ATOM     24  C   UNL     1       5.953   0.408   0.915  1.00  0.00    +0.000 A 
ENDBRANCH  17  19
ENDBRANCH   1  10
TORSDOF 3
