REMARK SMILES CCc1nc(O)c2cnn(-c3ccccc3)c2n1
REMARK SMILES IDX 3 1 4 2 5 3 7 4 8 5 9 6 10 7 17 8 18 9 2 10 1 11 6 12 11 14
REMARK SMILES IDX 12 15 16 16 13 17 15 18 14 19
REMARK H PARENT 6 13
ROOT
ATOM      1  C   UNL     1       2.325  -0.027  -0.478  1.00  0.00    +0.134 A 
ATOM      2  N   UNL     1       2.746  -0.888  -1.427  1.00  0.00    -0.198 NA
ATOM      3  C   UNL     1       1.825  -1.603  -2.088  1.00  0.00    +0.225 A 
ATOM      4  C   UNL     1       0.477  -1.458  -1.791  1.00  0.00    +0.101 A 
ATOM      5  C   UNL     1      -0.751  -1.980  -2.214  1.00  0.00    +0.151 A 
ATOM      6  N   UNL     1      -1.789  -1.465  -1.558  1.00  0.00    -0.174 NA
ATOM      7  N   UNL     1      -1.235  -0.576  -0.671  1.00  0.00    -0.214 N 
ATOM      8  C   UNL     1       0.155  -0.550  -0.795  1.00  0.00    +0.170 A 
ATOM      9  N   UNL     1       1.049   0.190  -0.106  1.00  0.00    -0.213 NA
ENDROOT
BRANCH   1  10
ATOM     10  C   UNL     1       3.389   0.742   0.259  1.00  0.00    +0.074 C 
ATOM     11  C   UNL     1       3.840  -0.003   1.505  1.00  0.00    +0.012 C 
ENDBRANCH   1  10
BRANCH   3  12
ATOM     12  O   UNL     1       2.314  -2.458  -3.043  1.00  0.00    -0.493 OA
ATOM     13  H   UNL     1       1.565  -2.917  -3.448  1.00  0.00    +0.295 HD
ENDBRANCH   3  12
BRANCH   7  14
ATOM     14  C   UNL     1      -2.085   0.164   0.208  1.00  0.00    +0.067 A 
ATOM     15  C   UNL     1      -3.475  -0.035   0.145  1.00  0.00    +0.028 A 
ATOM     16  C   UNL     1      -1.576   1.083   1.134  1.00  0.00    +0.028 A 
ATOM     17  C   UNL     1      -4.335   0.672   0.990  1.00  0.00    +0.002 A 
ATOM     18  C   UNL     1      -2.441   1.788   1.978  1.00  0.00    +0.002 A 
ATOM     19  C   UNL     1      -3.817   1.583   1.906  1.00  0.00    +0.000 A 
ENDBRANCH   7  14
TORSDOF 3
