REMARK SMILES CCc1nc(Nc2ccc(Cl)cc2)c2cnn(-c3ccccc3)c2n1
REMARK SMILES IDX 3 1 4 2 5 3 14 4 15 5 16 6 17 7 24 8 25 9 2 10 1 11 6 12
REMARK SMILES IDX 7 14 8 15 13 16 9 17 12 18 10 19 11 20 18 21 19 22 23 23
REMARK SMILES IDX 20 24 22 25 21 26
REMARK H PARENT 6 13
ROOT
ATOM      1  C   UNL     1      -0.001  -1.370  -0.631  1.00  0.00    +0.133 A 
ATOM      2  N   UNL     1       1.131  -0.641  -0.539  1.00  0.00    -0.215 NA
ATOM      3  C   UNL     1       1.160   0.488   0.208  1.00  0.00    +0.145 A 
ATOM      4  C   UNL     1      -0.030   0.846   0.863  1.00  0.00    +0.082 A 
ATOM      5  C   UNL     1      -0.469   1.876   1.709  1.00  0.00    +0.150 A 
ATOM      6  N   UNL     1      -1.745   1.754   2.066  1.00  0.00    -0.174 NA
ATOM      7  N   UNL     1      -2.173   0.613   1.439  1.00  0.00    -0.215 N 
ATOM      8  C   UNL     1      -1.141   0.034   0.698  1.00  0.00    +0.168 A 
ATOM      9  N   UNL     1      -1.175  -1.089  -0.046  1.00  0.00    -0.213 NA
ENDROOT
BRANCH   1  10
ATOM     10  C   UNL     1       0.052  -2.596  -1.503  1.00  0.00    +0.074 C 
ATOM     11  C   UNL     1      -0.316  -2.264  -2.940  1.00  0.00    +0.012 C 
ENDBRANCH   1  10
BRANCH   3  12
ATOM     12  N   UNL     1       2.326   1.259   0.339  1.00  0.00    -0.340 N 
ATOM     13  H   UNL     1       2.223   2.047   0.962  1.00  0.00    +0.168 HD
BRANCH  12  14
ATOM     14  C   UNL     1       3.593   1.173  -0.264  1.00  0.00    +0.040 A 
ATOM     15  C   UNL     1       3.917   0.269  -1.281  1.00  0.00    +0.027 A 
ATOM     16  C   UNL     1       4.612   2.024   0.201  1.00  0.00    +0.027 A 
ATOM     17  C   UNL     1       5.206   0.219  -1.826  1.00  0.00    +0.022 A 
ATOM     18  C   UNL     1       5.902   1.980  -0.339  1.00  0.00    +0.022 A 
ATOM     19  C   UNL     1       6.194   1.075  -1.353  1.00  0.00    +0.041 A 
ATOM     20 Cl   UNL     1       7.777   1.013  -2.019  1.00  0.00    -0.084 Cl
ENDBRANCH  12  14
ENDBRANCH   3  12
BRANCH   7  21
ATOM     21  C   UNL     1      -3.526   0.184   1.606  1.00  0.00    +0.067 A 
ATOM     22  C   UNL     1      -4.021  -0.974   0.992  1.00  0.00    +0.028 A 
ATOM     23  C   UNL     1      -4.391   0.946   2.411  1.00  0.00    +0.028 A 
ATOM     24  C   UNL     1      -5.353  -1.358   1.180  1.00  0.00    +0.002 A 
ATOM     25  C   UNL     1      -5.721   0.558   2.594  1.00  0.00    +0.002 A 
ATOM     26  C   UNL     1      -6.201  -0.595   1.978  1.00  0.00    +0.000 A 
ENDBRANCH   7  21
TORSDOF 4
