MODEL 1
REMARK VINA RESULT:   -10.594      0.000      0.000
REMARK INTER + INTRA:         -11.213
REMARK INTER:                 -11.213
REMARK INTRA:                   0.000
REMARK UNBOUND:                 0.000
REMARK SMILES Nc1ccc(O)c2c1C(=O)c1ccccc1C2=O
REMARK SMILES IDX 2 1 3 2 4 3 5 4 7 5 8 6 9 7 10 8 11 9 16 10 15 11 14 12
REMARK SMILES IDX 13 13 12 14 17 15 18 16 1 17 6 20
REMARK H PARENT 1 18 1 19 6 21
ROOT
ATOM      1  C   UNL     1     -27.373   6.651   7.944  1.00  0.00    +0.044 A 
ATOM      2  C   UNL     1     -26.141   5.994   8.061  1.00  0.00    +0.030 A 
ATOM      3  C   UNL     1     -24.979   6.546   7.523  1.00  0.00    +0.049 A 
ATOM      4  C   UNL     1     -25.032   7.786   6.899  1.00  0.00    +0.127 A 
ATOM      5  C   UNL     1     -26.243   8.488   6.806  1.00  0.00    +0.078 A 
ATOM      6  C   UNL     1     -27.412   7.924   7.329  1.00  0.00    +0.060 A 
ATOM      7  C   UNL     1     -28.700   8.656   7.185  1.00  0.00    +0.196 C 
ATOM      8  O   UNL     1     -29.768   8.133   7.492  1.00  0.00    -0.288 OA
ATOM      9  C   UNL     1     -28.703  10.024   6.632  1.00  0.00    +0.034 A 
ATOM     10  C   UNL     1     -27.531  10.586   6.139  1.00  0.00    +0.034 A 
ATOM     11  C   UNL     1     -27.543  11.881   5.603  1.00  0.00    +0.013 A 
ATOM     12  C   UNL     1     -28.733  12.609   5.564  1.00  0.00    +0.001 A 
ATOM     13  C   UNL     1     -29.910  12.046   6.057  1.00  0.00    +0.001 A 
ATOM     14  C   UNL     1     -29.898  10.755   6.589  1.00  0.00    +0.013 A 
ATOM     15  C   UNL     1     -26.274   9.821   6.173  1.00  0.00    +0.198 C 
ATOM     16  O   UNL     1     -25.247  10.289   5.688  1.00  0.00    -0.288 OA
ENDROOT
BRANCH   1  17
ATOM     17  N   UNL     1     -28.471   6.115   8.640  1.00  0.00    -0.398 N 
ATOM     18  H   UNL     1     -28.320   5.134   8.909  1.00  0.00    +0.156 HD
ATOM     19  H   UNL     1     -28.811   6.680   9.409  1.00  0.00    +0.156 HD
ENDBRANCH   1  17
BRANCH   4  20
ATOM     20  O   UNL     1     -23.846   8.262   6.408  1.00  0.00    -0.507 OA
ATOM     21  H   UNL     1     -23.897   8.263   5.425  1.00  0.00    +0.293 HD
ENDBRANCH   4  20
TORSDOF 2
ENDMDL
MODEL 2
REMARK VINA RESULT:   -10.269      1.435      3.188
REMARK INTER + INTRA:         -10.870
REMARK INTER:                 -10.870
REMARK INTRA:                   0.000
REMARK UNBOUND:                 0.000
REMARK SMILES Nc1ccc(O)c2c1C(=O)c1ccccc1C2=O
REMARK SMILES IDX 2 1 3 2 4 3 5 4 7 5 8 6 9 7 10 8 11 9 16 10 15 11 14 12
REMARK SMILES IDX 13 13 12 14 17 15 18 16 1 17 6 20
REMARK H PARENT 1 18 1 19 6 21
ROOT
ATOM      1  C   UNL     1     -25.106   7.565   6.871  1.00  0.00    +0.044 A 
ATOM      2  C   UNL     1     -25.259   6.292   7.437  1.00  0.00    +0.030 A 
ATOM      3  C   UNL     1     -26.472   5.899   8.001  1.00  0.00    +0.049 A 
ATOM      4  C   UNL     1     -27.559   6.762   7.965  1.00  0.00    +0.127 A 
ATOM      5  C   UNL     1     -27.449   8.025   7.364  1.00  0.00    +0.078 A 
ATOM      6  C   UNL     1     -26.226   8.427   6.816  1.00  0.00    +0.060 A 
ATOM      7  C   UNL     1     -26.107   9.787   6.222  1.00  0.00    +0.196 C 
ATOM      8  O   UNL     1     -25.020  10.234   5.869  1.00  0.00    -0.288 OA
ATOM      9  C   UNL     1     -27.311  10.629   6.084  1.00  0.00    +0.034 A 
ATOM     10  C   UNL     1     -28.527  10.209   6.609  1.00  0.00    +0.034 A 
ATOM     11  C   UNL     1     -29.663  11.021   6.486  1.00  0.00    +0.013 A 
ATOM     12  C   UNL     1     -29.575  12.252   5.835  1.00  0.00    +0.001 A 
ATOM     13  C   UNL     1     -28.354  12.675   5.309  1.00  0.00    +0.001 A 
ATOM     14  C   UNL     1     -27.222  11.868   5.433  1.00  0.00    +0.013 A 
ATOM     15  C   UNL     1     -28.626   8.914   7.300  1.00  0.00    +0.198 C 
ATOM     16  O   UNL     1     -29.684   8.562   7.816  1.00  0.00    -0.288 OA
ENDROOT
BRANCH   1  17
ATOM     17  N   UNL     1     -23.909   7.839   6.186  1.00  0.00    -0.398 N 
ATOM     18  H   UNL     1     -23.831   7.307   5.309  1.00  0.00    +0.156 HD
ATOM     19  H   UNL     1     -23.698   8.823   6.062  1.00  0.00    +0.156 HD
ENDBRANCH   1  17
BRANCH   4  20
ATOM     20  O   UNL     1     -28.716   6.294   8.530  1.00  0.00    -0.507 OA
ATOM     21  H   UNL     1     -28.955   5.449   8.085  1.00  0.00    +0.293 HD
ENDBRANCH   4  20
TORSDOF 2
ENDMDL
MODEL 3
REMARK VINA RESULT:    -9.916      1.509      4.659
REMARK INTER + INTRA:         -10.496
REMARK INTER:                 -10.496
REMARK INTRA:                   0.000
REMARK UNBOUND:                 0.000
REMARK SMILES Nc1ccc(O)c2c1C(=O)c1ccccc1C2=O
REMARK SMILES IDX 2 1 3 2 4 3 5 4 7 5 8 6 9 7 10 8 11 9 16 10 15 11 14 12
REMARK SMILES IDX 13 13 12 14 17 15 18 16 1 17 6 20
REMARK H PARENT 1 18 1 19 6 21
ROOT
ATOM      1  C   UNL     1     -29.262  11.069   6.313  1.00  0.00    +0.044 A 
ATOM      2  C   UNL     1     -28.917  12.228   5.604  1.00  0.00    +0.030 A 
ATOM      3  C   UNL     1     -27.602  12.454   5.197  1.00  0.00    +0.049 A 
ATOM      4  C   UNL     1     -26.627  11.501   5.458  1.00  0.00    +0.127 A 
ATOM      5  C   UNL     1     -26.952  10.312   6.127  1.00  0.00    +0.078 A 
ATOM      6  C   UNL     1     -28.267  10.093   6.552  1.00  0.00    +0.060 A 
ATOM      7  C   UNL     1     -28.591   8.848   7.301  1.00  0.00    +0.196 C 
ATOM      8  O   UNL     1     -29.692   8.687   7.822  1.00  0.00    -0.288 OA
ATOM      9  C   UNL     1     -27.564   7.799   7.452  1.00  0.00    +0.034 A 
ATOM     10  C   UNL     1     -26.267   8.015   7.002  1.00  0.00    +0.034 A 
ATOM     11  C   UNL     1     -25.293   7.020   7.160  1.00  0.00    +0.013 A 
ATOM     12  C   UNL     1     -25.626   5.809   7.769  1.00  0.00    +0.001 A 
ATOM     13  C   UNL     1     -26.927   5.591   8.222  1.00  0.00    +0.001 A 
ATOM     14  C   UNL     1     -27.896   6.584   8.067  1.00  0.00    +0.013 A 
ATOM     15  C   UNL     1     -25.910   9.292   6.363  1.00  0.00    +0.198 C 
ATOM     16  O   UNL     1     -24.753   9.512   6.014  1.00  0.00    -0.288 OA
ENDROOT
BRANCH   1  17
ATOM     17  N   UNL     1     -30.626  10.832   6.557  1.00  0.00    -0.398 N 
ATOM     18  H   UNL     1     -31.187  11.692   6.502  1.00  0.00    +0.156 HD
ATOM     19  H   UNL     1     -31.033  10.069   6.026  1.00  0.00    +0.156 HD
ENDBRANCH   1  17
BRANCH   4  20
ATOM     20  O   UNL     1     -25.365  11.796   5.015  1.00  0.00    -0.507 OA
ATOM     21  H   UNL     1     -24.743  11.131   5.391  1.00  0.00    +0.293 HD
ENDBRANCH   4  20
TORSDOF 2
ENDMDL
MODEL 4
REMARK VINA RESULT:    -9.263      2.674      4.421
REMARK INTER + INTRA:          -9.804
REMARK INTER:                  -9.804
REMARK INTRA:                   0.000
REMARK UNBOUND:                 0.000
REMARK SMILES Nc1ccc(O)c2c1C(=O)c1ccccc1C2=O
REMARK SMILES IDX 2 1 3 2 4 3 5 4 7 5 8 6 9 7 10 8 11 9 16 10 15 11 14 12
REMARK SMILES IDX 13 13 12 14 17 15 18 16 1 17 6 20
REMARK H PARENT 1 18 1 19 6 21
ROOT
ATOM      1  C   UNL     1     -27.910  12.029   5.624  1.00  0.00    +0.044 A 
ATOM      2  C   UNL     1     -26.522  12.128   5.456  1.00  0.00    +0.030 A 
ATOM      3  C   UNL     1     -25.670  11.131   5.928  1.00  0.00    +0.049 A 
ATOM      4  C   UNL     1     -26.202  10.001   6.536  1.00  0.00    +0.127 A 
ATOM      5  C   UNL     1     -27.589   9.854   6.678  1.00  0.00    +0.078 A 
ATOM      6  C   UNL     1     -28.444  10.864   6.222  1.00  0.00    +0.060 A 
ATOM      7  C   UNL     1     -29.912  10.718   6.419  1.00  0.00    +0.196 C 
ATOM      8  O   UNL     1     -30.683  11.642   6.173  1.00  0.00    -0.288 OA
ATOM      9  C   UNL     1     -30.454   9.453   6.952  1.00  0.00    +0.034 A 
ATOM     10  C   UNL     1     -29.597   8.445   7.378  1.00  0.00    +0.034 A 
ATOM     11  C   UNL     1     -30.119   7.251   7.896  1.00  0.00    +0.013 A 
ATOM     12  C   UNL     1     -31.500   7.073   7.983  1.00  0.00    +0.001 A 
ATOM     13  C   UNL     1     -32.361   8.084   7.557  1.00  0.00    +0.001 A 
ATOM     14  C   UNL     1     -31.841   9.274   7.043  1.00  0.00    +0.013 A 
ATOM     15  C   UNL     1     -28.140   8.630   7.293  1.00  0.00    +0.198 C 
ATOM     16  O   UNL     1     -27.377   7.767   7.720  1.00  0.00    -0.288 OA
ENDROOT
BRANCH   1  17
ATOM     17  N   UNL     1     -28.718  12.990   4.991  1.00  0.00    -0.398 N 
ATOM     18  H   UNL     1     -28.393  13.207   4.040  1.00  0.00    +0.156 HD
ATOM     19  H   UNL     1     -29.715  12.807   5.028  1.00  0.00    +0.156 HD
ENDBRANCH   1  17
BRANCH   4  20
ATOM     20  O   UNL     1     -25.297   9.065   6.961  1.00  0.00    -0.507 OA
ATOM     21  H   UNL     1     -24.516   9.098   6.361  1.00  0.00    +0.293 HD
ENDBRANCH   4  20
TORSDOF 2
ENDMDL
MODEL 5
REMARK VINA RESULT:    -9.102      2.098      4.161
REMARK INTER + INTRA:          -9.634
REMARK INTER:                  -9.634
REMARK INTRA:                   0.000
REMARK UNBOUND:                 0.000
REMARK SMILES Nc1ccc(O)c2c1C(=O)c1ccccc1C2=O
REMARK SMILES IDX 2 1 3 2 4 3 5 4 7 5 8 6 9 7 10 8 11 9 16 10 15 11 14 12
REMARK SMILES IDX 13 13 12 14 17 15 18 16 1 17 6 20
REMARK H PARENT 1 18 1 19 6 21
ROOT
ATOM      1  C   UNL     1     -29.232   7.254   8.073  1.00  0.00    +0.044 A 
ATOM      2  C   UNL     1     -30.488   6.691   8.339  1.00  0.00    +0.030 A 
ATOM      3  C   UNL     1     -31.661   7.399   8.080  1.00  0.00    +0.049 A 
ATOM      4  C   UNL     1     -31.589   8.664   7.510  1.00  0.00    +0.127 A 
ATOM      5  C   UNL     1     -30.349   9.234   7.190  1.00  0.00    +0.078 A 
ATOM      6  C   UNL     1     -29.171   8.531   7.469  1.00  0.00    +0.060 A 
ATOM      7  C   UNL     1     -27.858   9.165   7.169  1.00  0.00    +0.196 C 
ATOM      8  O   UNL     1     -26.804   8.651   7.534  1.00  0.00    -0.288 OA
ATOM      9  C   UNL     1     -27.818  10.452   6.447  1.00  0.00    +0.034 A 
ATOM     10  C   UNL     1     -28.995  11.130   6.152  1.00  0.00    +0.034 A 
ATOM     11  C   UNL     1     -28.948  12.359   5.479  1.00  0.00    +0.013 A 
ATOM     12  C   UNL     1     -27.719  12.902   5.103  1.00  0.00    +0.001 A 
ATOM     13  C   UNL     1     -26.537  12.224   5.400  1.00  0.00    +0.001 A 
ATOM     14  C   UNL     1     -26.583  11.001   6.073  1.00  0.00    +0.013 A 
ATOM     15  C   UNL     1     -30.293  10.563   6.549  1.00  0.00    +0.198 C 
ATOM     16  O   UNL     1     -31.333  11.183   6.342  1.00  0.00    -0.288 OA
ENDROOT
BRANCH   1  17
ATOM     17  N   UNL     1     -28.101   6.431   8.213  1.00  0.00    -0.398 N 
ATOM     18  H   UNL     1     -27.334   6.713   7.590  1.00  0.00    +0.156 HD
ATOM     19  H   UNL     1     -27.791   6.284   9.168  1.00  0.00    +0.156 HD
ENDBRANCH   1  17
BRANCH   4  20
ATOM     20  O   UNL     1     -32.787   9.286   7.277  1.00  0.00    -0.507 OA
ATOM     21  H   UNL     1     -32.925   9.334   6.303  1.00  0.00    +0.293 HD
ENDBRANCH   4  20
TORSDOF 2
ENDMDL
MODEL 6
REMARK VINA RESULT:    -8.906      2.276      3.557
REMARK INTER + INTRA:          -9.426
REMARK INTER:                  -9.426
REMARK INTRA:                   0.000
REMARK UNBOUND:                 0.000
REMARK SMILES Nc1ccc(O)c2c1C(=O)c1ccccc1C2=O
REMARK SMILES IDX 2 1 3 2 4 3 5 4 7 5 8 6 9 7 10 8 11 9 16 10 15 11 14 12
REMARK SMILES IDX 13 13 12 14 17 15 18 16 1 17 6 20
REMARK H PARENT 1 18 1 19 6 21
ROOT
ATOM      1  C   UNL     1     -25.707   9.549   6.228  1.00  0.00    +0.044 A 
ATOM      2  C   UNL     1     -24.739   8.548   6.385  1.00  0.00    +0.030 A 
ATOM      3  C   UNL     1     -25.050   7.342   7.012  1.00  0.00    +0.049 A 
ATOM      4  C   UNL     1     -26.347   7.108   7.449  1.00  0.00    +0.127 A 
ATOM      5  C   UNL     1     -27.348   8.073   7.265  1.00  0.00    +0.078 A 
ATOM      6  C   UNL     1     -27.031   9.292   6.654  1.00  0.00    +0.060 A 
ATOM      7  C   UNL     1     -28.090  10.327   6.505  1.00  0.00    +0.196 C 
ATOM      8  O   UNL     1     -27.822  11.460   6.115  1.00  0.00    -0.288 OA
ATOM      9  C   UNL     1     -29.484  10.001   6.863  1.00  0.00    +0.034 A 
ATOM     10  C   UNL     1     -29.793   8.778   7.445  1.00  0.00    +0.034 A 
ATOM     11  C   UNL     1     -31.117   8.480   7.795  1.00  0.00    +0.013 A 
ATOM     12  C   UNL     1     -32.128   9.412   7.558  1.00  0.00    +0.001 A 
ATOM     13  C   UNL     1     -31.819  10.641   6.975  1.00  0.00    +0.001 A 
ATOM     14  C   UNL     1     -30.500  10.938   6.628  1.00  0.00    +0.013 A 
ATOM     15  C   UNL     1     -28.730   7.793   7.702  1.00  0.00    +0.198 C 
ATOM     16  O   UNL     1     -28.986   6.733   8.268  1.00  0.00    -0.288 OA
ENDROOT
BRANCH   1  17
ATOM     17  N   UNL     1     -25.368  10.674   5.454  1.00  0.00    -0.398 N 
ATOM     18  H   UNL     1     -24.889  11.396   6.007  1.00  0.00    +0.156 HD
ATOM     19  H   UNL     1     -24.889  10.469   4.584  1.00  0.00    +0.156 HD
ENDBRANCH   1  17
BRANCH   4  20
ATOM     20  O   UNL     1     -26.571   5.894   8.043  1.00  0.00    -0.507 OA
ATOM     21  H   UNL     1     -26.227   5.191   7.445  1.00  0.00    +0.293 HD
ENDBRANCH   4  20
TORSDOF 2
ENDMDL
MODEL 7
REMARK VINA RESULT:    -8.150      2.861      4.957
REMARK INTER + INTRA:          -8.626
REMARK INTER:                  -8.626
REMARK INTRA:                   0.000
REMARK UNBOUND:                 0.000
REMARK SMILES Nc1ccc(O)c2c1C(=O)c1ccccc1C2=O
REMARK SMILES IDX 2 1 3 2 4 3 5 4 7 5 8 6 9 7 10 8 11 9 16 10 15 11 14 12
REMARK SMILES IDX 13 13 12 14 17 15 18 16 1 17 6 20
REMARK H PARENT 1 18 1 19 6 21
ROOT
ATOM      1  C   UNL     1     -30.638   5.451   8.753  1.00  0.00    +0.044 A 
ATOM      2  C   UNL     1     -31.971   5.021   8.803  1.00  0.00    +0.030 A 
ATOM      3  C   UNL     1     -33.008   5.847   8.371  1.00  0.00    +0.049 A 
ATOM      4  C   UNL     1     -32.716   7.098   7.841  1.00  0.00    +0.127 A 
ATOM      5  C   UNL     1     -31.388   7.536   7.737  1.00  0.00    +0.078 A 
ATOM      6  C   UNL     1     -30.349   6.715   8.189  1.00  0.00    +0.060 A 
ATOM      7  C   UNL     1     -28.947   7.209   8.116  1.00  0.00    +0.196 C 
ATOM      8  O   UNL     1     -28.025   6.588   8.638  1.00  0.00    -0.288 OA
ATOM      9  C   UNL     1     -28.658   8.486   7.434  1.00  0.00    +0.034 A 
ATOM     10  C   UNL     1     -29.696   9.282   6.964  1.00  0.00    +0.034 A 
ATOM     11  C   UNL     1     -29.415  10.500   6.329  1.00  0.00    +0.013 A 
ATOM     12  C   UNL     1     -28.092  10.913   6.167  1.00  0.00    +0.001 A 
ATOM     13  C   UNL     1     -27.050  10.116   6.639  1.00  0.00    +0.001 A 
ATOM     14  C   UNL     1     -27.330   8.904   7.273  1.00  0.00    +0.013 A 
ATOM     15  C   UNL     1     -31.093   8.853   7.137  1.00  0.00    +0.198 C 
ATOM     16  O   UNL     1     -32.017   9.578   6.776  1.00  0.00    -0.288 OA
ENDROOT
BRANCH   1  17
ATOM     17  N   UNL     1     -29.635   4.514   9.060  1.00  0.00    -0.398 N 
ATOM     18  H   UNL     1     -28.691   4.915   8.982  1.00  0.00    +0.156 HD
ATOM     19  H   UNL     1     -29.771   4.006   9.928  1.00  0.00    +0.156 HD
ENDBRANCH   1  17
BRANCH   4  20
ATOM     20  O   UNL     1     -33.790   7.841   7.429  1.00  0.00    -0.507 OA
ATOM     21  H   UNL     1     -33.649   8.772   7.719  1.00  0.00    +0.293 HD
ENDBRANCH   4  20
TORSDOF 2
ENDMDL
MODEL 8
REMARK VINA RESULT:    -7.952      8.131      9.635
REMARK INTER + INTRA:          -8.417
REMARK INTER:                  -8.417
REMARK INTRA:                   0.000
REMARK UNBOUND:                 0.000
REMARK SMILES Nc1ccc(O)c2c1C(=O)c1ccccc1C2=O
REMARK SMILES IDX 2 1 3 2 4 3 5 4 7 5 8 6 9 7 10 8 11 9 16 10 15 11 14 12
REMARK SMILES IDX 13 13 12 14 17 15 18 16 1 17 6 20
REMARK H PARENT 1 18 1 19 6 21
ROOT
ATOM      1  C   UNL     1     -24.189   2.637  11.014  1.00  0.00    +0.044 A 
ATOM      2  C   UNL     1     -22.917   2.051  10.960  1.00  0.00    +0.030 A 
ATOM      3  C   UNL     1     -22.769   0.671  10.828  1.00  0.00    +0.049 A 
ATOM      4  C   UNL     1     -23.895  -0.133  10.704  1.00  0.00    +0.127 A 
ATOM      5  C   UNL     1     -25.179   0.430  10.709  1.00  0.00    +0.078 A 
ATOM      6  C   UNL     1     -25.328   1.814  10.862  1.00  0.00    +0.060 A 
ATOM      7  C   UNL     1     -26.697   2.396  10.913  1.00  0.00    +0.196 C 
ATOM      8  O   UNL     1     -26.876   3.577  11.196  1.00  0.00    -0.288 OA
ATOM      9  C   UNL     1     -27.866   1.534  10.651  1.00  0.00    +0.034 A 
ATOM     10  C   UNL     1     -27.705   0.165  10.474  1.00  0.00    +0.034 A 
ATOM     11  C   UNL     1     -28.822  -0.649  10.240  1.00  0.00    +0.013 A 
ATOM     12  C   UNL     1     -30.097  -0.086  10.182  1.00  0.00    +0.001 A 
ATOM     13  C   UNL     1     -30.260   1.288  10.361  1.00  0.00    +0.001 A 
ATOM     14  C   UNL     1     -29.148   2.099  10.597  1.00  0.00    +0.013 A 
ATOM     15  C   UNL     1     -26.363  -0.435  10.538  1.00  0.00    +0.198 C 
ATOM     16  O   UNL     1     -26.219  -1.651  10.440  1.00  0.00    -0.288 OA
ENDROOT
BRANCH   1  17
ATOM     17  N   UNL     1     -24.265   4.042  10.994  1.00  0.00    -0.398 N 
ATOM     18  H   UNL     1     -24.760   4.417  11.814  1.00  0.00    +0.156 HD
ATOM     19  H   UNL     1     -23.387   4.518  10.819  1.00  0.00    +0.156 HD
ENDBRANCH   1  17
BRANCH   4  20
ATOM     20  O   UNL     1     -23.662  -1.476  10.566  1.00  0.00    -0.507 OA
ATOM     21  H   UNL     1     -24.530  -1.940  10.558  1.00  0.00    +0.293 HD
ENDBRANCH   4  20
TORSDOF 2
ENDMDL
MODEL 9
REMARK VINA RESULT:    -7.942      8.169      9.409
REMARK INTER + INTRA:          -8.406
REMARK INTER:                  -8.406
REMARK INTRA:                   0.000
REMARK UNBOUND:                 0.000
REMARK SMILES Nc1ccc(O)c2c1C(=O)c1ccccc1C2=O
REMARK SMILES IDX 2 1 3 2 4 3 5 4 7 5 8 6 9 7 10 8 11 9 16 10 15 11 14 12
REMARK SMILES IDX 13 13 12 14 17 15 18 16 1 17 6 20
REMARK H PARENT 1 18 1 19 6 21
ROOT
ATOM      1  C   UNL     1     -23.762  -0.098  10.399  1.00  0.00    +0.044 A 
ATOM      2  C   UNL     1     -22.658   0.725  10.659  1.00  0.00    +0.030 A 
ATOM      3  C   UNL     1     -22.817   2.094  10.866  1.00  0.00    +0.049 A 
ATOM      4  C   UNL     1     -24.091   2.648  10.857  1.00  0.00    +0.127 A 
ATOM      5  C   UNL     1     -25.219   1.842  10.644  1.00  0.00    +0.078 A 
ATOM      6  C   UNL     1     -25.057   0.470  10.417  1.00  0.00    +0.060 A 
ATOM      7  C   UNL     1     -26.256  -0.368  10.146  1.00  0.00    +0.196 C 
ATOM      8  O   UNL     1     -26.148  -1.540   9.794  1.00  0.00    -0.288 OA
ATOM      9  C   UNL     1     -27.602   0.223  10.269  1.00  0.00    +0.034 A 
ATOM     10  C   UNL     1     -27.753   1.582  10.521  1.00  0.00    +0.034 A 
ATOM     11  C   UNL     1     -29.035   2.140  10.623  1.00  0.00    +0.013 A 
ATOM     12  C   UNL     1     -30.162   1.331  10.473  1.00  0.00    +0.001 A 
ATOM     13  C   UNL     1     -30.013  -0.032  10.219  1.00  0.00    +0.001 A 
ATOM     14  C   UNL     1     -28.736  -0.588  10.115  1.00  0.00    +0.013 A 
ATOM     15  C   UNL     1     -26.568   2.440  10.675  1.00  0.00    +0.198 C 
ATOM     16  O   UNL     1     -26.693   3.651  10.841  1.00  0.00    -0.288 OA
ENDROOT
BRANCH   1  17
ATOM     17  N   UNL     1     -23.548  -1.488  10.353  1.00  0.00    -0.398 N 
ATOM     18  H   UNL     1     -22.575  -1.724  10.120  1.00  0.00    +0.156 HD
ATOM     19  H   UNL     1     -23.891  -2.003  11.156  1.00  0.00    +0.156 HD
ENDBRANCH   1  17
BRANCH   4  20
ATOM     20  O   UNL     1     -24.161   3.997  11.080  1.00  0.00    -0.507 OA
ATOM     21  H   UNL     1     -23.247   4.363  11.040  1.00  0.00    +0.293 HD
ENDBRANCH   4  20
TORSDOF 2
ENDMDL
