REMARK SMILES Clc1ccc(Nc2ncnc3c2cnn3-c2ccccc2)cc1
REMARK SMILES IDX 6 1 5 3 2 4 3 5 23 6 4 7 22 8 1 9 7 10 12 11 8 12 13 13
REMARK SMILES IDX 11 14 9 15 14 16 15 17 10 18 16 19 17 20 21 21 18 22 20 23
REMARK SMILES IDX 19 24
REMARK H PARENT 6 2
ROOT
ATOM      1  N   UNL     1      -2.315  -0.672   0.413  1.00  0.00    -0.340 N 
ATOM      2  H   UNL     1      -2.126  -1.652   0.567  1.00  0.00    +0.168 HD
ENDROOT
BRANCH   1   3
ATOM      3  C   UNL     1      -3.680  -0.340   0.488  1.00  0.00    +0.040 A 
ATOM      4  C   UNL     1      -6.448   0.181   0.665  1.00  0.00    +0.041 A 
ATOM      5  C   UNL     1      -5.559   1.215   0.398  1.00  0.00    +0.022 A 
ATOM      6  C   UNL     1      -5.975  -1.113   0.845  1.00  0.00    +0.022 A 
ATOM      7  C   UNL     1      -4.185   0.952   0.311  1.00  0.00    +0.027 A 
ATOM      8  C   UNL     1      -4.602  -1.368   0.756  1.00  0.00    +0.027 A 
ATOM      9 Cl   UNL     1      -8.134   0.502   0.772  1.00  0.00    -0.084 Cl
ENDBRANCH   1   3
BRANCH   1  10
ATOM     10  C   UNL     1      -1.162   0.090   0.169  1.00  0.00    +0.144 A 
ATOM     11  C   UNL     1       0.113  -0.504   0.149  1.00  0.00    +0.082 A 
ATOM     12  N   UNL     1      -1.218   1.425  -0.059  1.00  0.00    -0.218 NA
ATOM     13  C   UNL     1       0.650  -1.790   0.322  1.00  0.00    +0.150 A 
ATOM     14  C   UNL     1       1.216   0.302  -0.099  1.00  0.00    +0.168 A 
ATOM     15  C   UNL     1      -0.083   2.107  -0.288  1.00  0.00    +0.226 A 
ATOM     16  N   UNL     1       1.974  -1.827   0.200  1.00  0.00    -0.174 NA
ATOM     17  N   UNL     1       2.336  -0.531  -0.061  1.00  0.00    -0.215 N 
ATOM     18  N   UNL     1       1.167   1.630  -0.326  1.00  0.00    -0.216 NA
BRANCH  17  19
ATOM     19  C   UNL     1       3.716  -0.211  -0.251  1.00  0.00    +0.067 A 
ATOM     20  C   UNL     1       4.147   1.094  -0.521  1.00  0.00    +0.028 A 
ATOM     21  C   UNL     1       4.675  -1.237  -0.165  1.00  0.00    +0.028 A 
ATOM     22  C   UNL     1       5.508   1.365  -0.700  1.00  0.00    +0.002 A 
ATOM     23  C   UNL     1       6.032  -0.960  -0.344  1.00  0.00    +0.002 A 
ATOM     24  C   UNL     1       6.448   0.341  -0.612  1.00  0.00    +0.000 A 
ENDBRANCH  17  19
ENDBRANCH   1  10
TORSDOF 3
