REMARK SMILES COc1ccc2nc3cc(Cl)ccc3c(NCCCCCN3CCCCC3)c2c1
REMARK SMILES IDX 17 1 16 2 15 4 3 5 29 6 4 7 28 8 5 9 6 10 14 11 7 12 13 13
REMARK SMILES IDX 8 14 12 15 9 16 10 17 11 18 2 19 1 20 18 21 19 22 20 23
REMARK SMILES IDX 21 24 22 25 23 26 27 27 24 28 26 29 25 30
REMARK H PARENT 16 3
ROOT
ATOM      1  C   UNL     1      -0.484   0.174   0.259  1.00  0.00    +0.113 C 
ENDROOT
BRANCH   1   2
ATOM      2  N   UNL     1      -1.322  -0.832   0.942  1.00  0.00    -0.384 N 
ATOM      3  H   UNL     1      -1.412  -0.571   1.925  1.00  0.00    +0.160 HD
BRANCH   2   4
ATOM      4  C   UNL     1      -2.645  -0.931   0.401  1.00  0.00    +0.053 A 
ATOM      5  C   UNL     1      -4.455   2.131   1.711  1.00  0.00    +0.119 A 
ATOM      6  C   UNL     1      -3.448   1.186   1.505  1.00  0.00    +0.059 A 
ATOM      7  C   UNL     1      -5.671   1.963   1.066  1.00  0.00    +0.048 A 
ATOM      8  C   UNL     1      -3.631   0.064   0.655  1.00  0.00    +0.028 A 
ATOM      9  C   UNL     1      -5.864   0.857   0.231  1.00  0.00    +0.033 A 
ATOM     10  C   UNL     1      -4.874  -0.092   0.017  1.00  0.00    +0.073 A 
ATOM     11  C   UNL     1      -2.959  -2.034  -0.436  1.00  0.00    +0.024 A 
ATOM     12  N   UNL     1      -5.161  -1.118  -0.796  1.00  0.00    -0.248 NA
ATOM     13  C   UNL     1      -2.062  -3.096  -0.701  1.00  0.00    +0.014 A 
ATOM     14  C   UNL     1      -4.241  -2.068  -1.014  1.00  0.00    +0.074 A 
ATOM     15  C   UNL     1      -2.421  -4.153  -1.534  1.00  0.00    +0.021 A 
ATOM     16  C   UNL     1      -4.582  -3.126  -1.844  1.00  0.00    +0.049 A 
ATOM     17  C   UNL     1      -3.685  -4.159  -2.106  1.00  0.00    +0.043 A 
ATOM     18 Cl   UNL     1      -4.148  -5.454  -3.140  1.00  0.00    -0.084 Cl
BRANCH   5  19
ATOM     19  O   UNL     1      -4.120   3.153   2.554  1.00  0.00    -0.497 OA
ATOM     20  C   UNL     1      -5.119   4.135   2.802  1.00  0.00    +0.278 C 
ENDBRANCH   5  19
ENDBRANCH   2   4
ENDBRANCH   1   2
BRANCH   1  21
ATOM     21  C   UNL     1       0.185  -0.406  -0.987  1.00  0.00    +0.021 C 
BRANCH  21  22
ATOM     22  C   UNL     1       1.086   0.594  -1.721  1.00  0.00    +0.003 C 
BRANCH  22  23
ATOM     23  C   UNL     1       2.239   1.192  -0.907  1.00  0.00    +0.016 C 
BRANCH  23  24
ATOM     24  C   UNL     1       3.226   0.139  -0.382  1.00  0.00    +0.084 C 
BRANCH  24  25
ATOM     25  N   UNL     1       4.288   0.728   0.451  1.00  0.00    -0.303 NA
ATOM     26  C   UNL     1       4.995  -0.300   1.235  1.00  0.00    +0.084 C 
ATOM     27  C   UNL     1       5.257   1.545  -0.298  1.00  0.00    +0.084 C 
ATOM     28  C   UNL     1       5.922  -1.189   0.401  1.00  0.00    +0.016 C 
ATOM     29  C   UNL     1       6.202   0.736  -1.191  1.00  0.00    +0.016 C 
ATOM     30  C   UNL     1       6.915  -0.354  -0.399  1.00  0.00    +0.003 C 
ENDBRANCH  24  25
ENDBRANCH  23  24
ENDBRANCH  22  23
ENDBRANCH  21  22
ENDBRANCH   1  21
TORSDOF 8
