REMARK SMILES O=C1c2ccccc2Cc2ccccc21
REMARK SMILES IDX 1 1 2 2 15 3 10 4 9 5 8 6 3 7 4 8 5 9 6 10 7 11 11 12 12 13
REMARK SMILES IDX 13 14 14 15
REMARK H PARENT
ROOT
ATOM      1  O   UNL     1       0.108  -2.725  -0.005  1.00  0.00    -0.289 OA
ATOM      2  C   UNL     1       0.059  -1.500  -0.042  1.00  0.00    +0.193 C 
ATOM      3  C   UNL     1       1.296  -0.695   0.085  1.00  0.00    +0.026 A 
ATOM      4  C   UNL     1       1.240   0.703   0.043  1.00  0.00    -0.032 A 
ATOM      5  C   UNL     1      -0.057   1.446  -0.130  1.00  0.00    +0.072 C 
ATOM      6  C   UNL     1      -1.291   0.594  -0.255  1.00  0.00    -0.032 A 
ATOM      7  C   UNL     1      -1.237  -0.804  -0.213  1.00  0.00    +0.026 A 
ATOM      8  C   UNL     1      -2.408  -1.564  -0.333  1.00  0.00    +0.012 A 
ATOM      9  C   UNL     1      -3.640  -0.932  -0.496  1.00  0.00    +0.001 A 
ATOM     10  C   UNL     1      -3.705   0.459  -0.539  1.00  0.00    +0.000 A 
ATOM     11  C   UNL     1      -2.540   1.218  -0.419  1.00  0.00    +0.005 A 
ATOM     12  C   UNL     1       2.435   1.432   0.167  1.00  0.00    +0.005 A 
ATOM     13  C   UNL     1       3.656   0.776   0.329  1.00  0.00    +0.000 A 
ATOM     14  C   UNL     1       3.701  -0.615   0.369  1.00  0.00    +0.001 A 
ATOM     15  C   UNL     1       2.524  -1.351   0.248  1.00  0.00    +0.012 A 
ENDROOT
TORSDOF 0
