REMARK SMILES Nc1ccc2ccc3ccccc3c2c1
REMARK SMILES IDX 1 1 2 4 15 5 3 6 14 7 4 8 13 9 5 10 12 11 8 12 6 13 11 14
REMARK SMILES IDX 9 15 7 16 10 17
REMARK H PARENT 1 2 1 3
ROOT
ATOM      1  N   UNL     1      -3.783   1.702   0.048  1.00  0.00    -0.399 N 
ATOM      2  H   UNL     1      -4.704   1.400   0.350  1.00  0.00    +0.156 HD
ATOM      3  H   UNL     1      -3.490   2.559   0.507  1.00  0.00    +0.156 HD
ENDROOT
BRANCH   1   4
ATOM      4  C   UNL     1      -2.818   0.688   0.076  1.00  0.00    +0.032 A 
ATOM      5  C   UNL     1      -1.455   1.008   0.084  1.00  0.00    +0.034 A 
ATOM      6  C   UNL     1      -3.188  -0.635  -0.128  1.00  0.00    +0.026 A 
ATOM      7  C   UNL     1      -0.430   0.027   0.001  1.00  0.00    -0.008 A 
ATOM      8  C   UNL     1      -2.216  -1.632  -0.215  1.00  0.00    +0.011 A 
ATOM      9  C   UNL     1       0.981   0.319   0.048  1.00  0.00    -0.010 A 
ATOM     10  C   UNL     1      -0.851  -1.318  -0.144  1.00  0.00    -0.018 A 
ATOM     11  C   UNL     1       1.522   1.623   0.185  1.00  0.00    +0.009 A 
ATOM     12  C   UNL     1       1.913  -0.747  -0.044  1.00  0.00    -0.018 A 
ATOM     13  C   UNL     1       0.095  -2.342  -0.232  1.00  0.00    +0.009 A 
ATOM     14  C   UNL     1       2.900   1.860   0.229  1.00  0.00    +0.001 A 
ATOM     15  C   UNL     1       3.295  -0.497   0.002  1.00  0.00    +0.009 A 
ATOM     16  C   UNL     1       1.458  -2.061  -0.181  1.00  0.00    +0.009 A 
ATOM     17  C   UNL     1       3.787   0.798   0.137  1.00  0.00    +0.001 A 
ENDBRANCH   1   4
TORSDOF 1
