REMARK SMILES Cc1ccccc1Nc1ncnc2c1cnn2-c1ccccc1
REMARK SMILES IDX 8 1 7 3 2 4 3 5 6 6 4 7 5 8 1 9 9 10 14 11 10 12 15 13 13 14
REMARK SMILES IDX 11 15 16 16 17 17 12 18 18 19 19 20 23 21 20 22 22 23 21 24
REMARK H PARENT 8 2
ROOT
ATOM      1  N   UNL     1      -2.336  -0.213  -1.196  1.00  0.00    -0.339 N 
ATOM      2  H   UNL     1      -2.838   0.073  -2.035  1.00  0.00    +0.168 HD
ENDROOT
BRANCH   1   3
ATOM      3  C   UNL     1      -3.076   0.140  -0.042  1.00  0.00    +0.043 A 
ATOM      4  C   UNL     1      -4.246  -0.581   0.275  1.00  0.00    -0.028 A 
ATOM      5  C   UNL     1      -5.017  -0.199   1.385  1.00  0.00    +0.005 A 
ATOM      6  C   UNL     1      -2.739   1.259   0.735  1.00  0.00    +0.026 A 
ATOM      7  C   UNL     1      -4.648   0.896   2.164  1.00  0.00    +0.000 A 
ATOM      8  C   UNL     1      -3.512   1.628   1.837  1.00  0.00    +0.002 A 
ATOM      9  C   UNL     1      -4.672  -1.768  -0.546  1.00  0.00    +0.046 C 
ENDBRANCH   1   3
BRANCH   1  10
ATOM     10  C   UNL     1      -0.977   0.032  -1.441  1.00  0.00    +0.144 A 
ATOM     11  C   UNL     1       0.056  -0.192  -0.522  1.00  0.00    +0.082 A 
ATOM     12  N   UNL     1      -0.646   0.468  -2.679  1.00  0.00    -0.218 NA
ATOM     13  C   UNL     1       0.182  -0.668   0.792  1.00  0.00    +0.150 A 
ATOM     14  C   UNL     1       1.355   0.082  -0.924  1.00  0.00    +0.168 A 
ATOM     15  C   UNL     1       0.649   0.701  -2.953  1.00  0.00    +0.226 A 
ATOM     16  N   UNL     1       1.443  -0.682   1.224  1.00  0.00    -0.174 NA
ATOM     17  N   UNL     1       2.177  -0.218   0.164  1.00  0.00    -0.215 N 
ATOM     18  N   UNL     1       1.705   0.545  -2.143  1.00  0.00    -0.216 NA
BRANCH  17  19
ATOM     19  C   UNL     1       3.597  -0.106   0.289  1.00  0.00    +0.067 A 
ATOM     20  C   UNL     1       4.402   0.365  -0.756  1.00  0.00    +0.028 A 
ATOM     21  C   UNL     1       4.209  -0.479   1.499  1.00  0.00    +0.028 A 
ATOM     22  C   UNL     1       5.788   0.460  -0.592  1.00  0.00    +0.002 A 
ATOM     23  C   UNL     1       5.594  -0.382   1.657  1.00  0.00    +0.002 A 
ATOM     24  C   UNL     1       6.383   0.088   0.611  1.00  0.00    +0.000 A 
ENDBRANCH  17  19
ENDBRANCH   1  10
TORSDOF 3
