REMARK SMILES Cc1nc(O)c2cnn(-c3ccccc3Cl)c2n1
REMARK SMILES IDX 1 1 2 2 3 3 4 4 6 5 7 6 8 7 9 8 17 9 18 10 5 11 10 13 15 14
REMARK SMILES IDX 11 15 14 16 12 17 13 18 16 19
REMARK H PARENT 5 12
ROOT
ATOM      1  C   UNL     1      -2.869   2.611  -0.198  1.00  0.00    +0.090 C 
ATOM      2  C   UNL     1      -2.473   1.176  -0.026  1.00  0.00    +0.131 A 
ATOM      3  N   UNL     1      -3.467   0.267  -0.053  1.00  0.00    -0.198 NA
ATOM      4  C   UNL     1      -3.147  -1.028   0.082  1.00  0.00    +0.225 A 
ATOM      5  C   UNL     1      -1.822  -1.411   0.233  1.00  0.00    +0.101 A 
ATOM      6  C   UNL     1      -1.083  -2.584   0.410  1.00  0.00    +0.151 A 
ATOM      7  N   UNL     1       0.225  -2.361   0.508  1.00  0.00    -0.174 NA
ATOM      8  N   UNL     1       0.370  -1.009   0.393  1.00  0.00    -0.213 N 
ATOM      9  C   UNL     1      -0.877  -0.397   0.222  1.00  0.00    +0.170 A 
ATOM     10  N   UNL     1      -1.157   0.918   0.101  1.00  0.00    -0.213 NA
ENDROOT
BRANCH   4  11
ATOM     11  O   UNL     1      -4.203  -1.904   0.064  1.00  0.00    -0.493 OA
ATOM     12  H   UNL     1      -3.853  -2.799   0.179  1.00  0.00    +0.295 HD
ENDBRANCH   4  11
BRANCH   8  13
ATOM     13  C   UNL     1       1.666  -0.402   0.390  1.00  0.00    +0.086 A 
ATOM     14  C   UNL     1       2.804  -1.023   0.942  1.00  0.00    +0.066 A 
ATOM     15  C   UNL     1       1.826   0.862  -0.214  1.00  0.00    +0.030 A 
ATOM     16  C   UNL     1       4.055  -0.387   0.867  1.00  0.00    +0.023 A 
ATOM     17  C   UNL     1       3.077   1.484  -0.278  1.00  0.00    +0.002 A 
ATOM     18  C   UNL     1       4.193   0.858   0.259  1.00  0.00    +0.002 A 
ATOM     19 Cl   UNL     1       2.806  -2.509   1.834  1.00  0.00    -0.082 Cl
ENDBRANCH   8  13
TORSDOF 2
