REMARK SMILES Cc1nc(Nc2cccc(Br)c2)c2cnn(-c3ccc(Cl)cc3)c2n1
REMARK SMILES IDX 1 1 2 2 3 3 4 4 13 5 14 6 15 7 16 8 24 9 25 10 5 11 6 13
REMARK SMILES IDX 12 14 7 15 10 16 8 17 9 18 11 19 17 20 18 21 23 22 19 23
REMARK SMILES IDX 22 24 20 25 21 26
REMARK H PARENT 5 12
ROOT
ATOM      1  C   UNL     1       0.015   2.480   2.228  1.00  0.00    +0.090 C 
ATOM      2  C   UNL     1      -0.040   1.341   1.255  1.00  0.00    +0.130 A 
ATOM      3  N   UNL     1       1.141   0.821   0.864  1.00  0.00    -0.215 NA
ATOM      4  C   UNL     1       1.181  -0.194  -0.033  1.00  0.00    +0.145 A 
ATOM      5  C   UNL     1      -0.052  -0.654  -0.523  1.00  0.00    +0.082 A 
ATOM      6  C   UNL     1      -0.502  -1.633  -1.422  1.00  0.00    +0.150 A 
ATOM      7  N   UNL     1      -1.827  -1.666  -1.543  1.00  0.00    -0.174 NA
ATOM      8  N   UNL     1      -2.275  -0.681  -0.703  1.00  0.00    -0.215 N 
ATOM      9  C   UNL     1      -1.210  -0.045  -0.064  1.00  0.00    +0.168 A 
ATOM     10  N   UNL     1      -1.254   0.964   0.827  1.00  0.00    -0.213 NA
ENDROOT
BRANCH   4  11
ATOM     11  N   UNL     1       2.393  -0.761  -0.458  1.00  0.00    -0.339 N 
ATOM     12  H   UNL     1       2.278  -1.502  -1.134  1.00  0.00    +0.168 HD
BRANCH  11  13
ATOM     13  C   UNL     1       3.735  -0.502  -0.122  1.00  0.00    +0.041 A 
ATOM     14  C   UNL     1       4.141   0.458   0.809  1.00  0.00    +0.041 A 
ATOM     15  C   UNL     1       4.738  -1.251  -0.766  1.00  0.00    +0.026 A 
ATOM     16  C   UNL     1       5.497   0.660   1.086  1.00  0.00    +0.020 A 
ATOM     17  C   UNL     1       6.093  -1.050  -0.489  1.00  0.00    +0.003 A 
ATOM     18  C   UNL     1       6.476  -0.090   0.442  1.00  0.00    +0.016 A 
ATOM     19 Br   UNL     1       6.009   1.968   2.354  1.00  0.00    -0.051 Br
ENDBRANCH  11  13
ENDBRANCH   4  11
BRANCH   8  20
ATOM     20  C   UNL     1      -3.681  -0.442  -0.589  1.00  0.00    +0.067 A 
ATOM     21  C   UNL     1      -4.572  -1.226  -1.346  1.00  0.00    +0.030 A 
ATOM     22  C   UNL     1      -4.201   0.550   0.253  1.00  0.00    +0.030 A 
ATOM     23  C   UNL     1      -5.952  -1.019  -1.260  1.00  0.00    +0.023 A 
ATOM     24  C   UNL     1      -5.584   0.753   0.336  1.00  0.00    +0.023 A 
ATOM     25  C   UNL     1      -6.453  -0.030  -0.420  1.00  0.00    +0.041 A 
ATOM     26 Cl   UNL     1      -8.150   0.225  -0.312  1.00  0.00    -0.084 Cl
ENDBRANCH   8  20
TORSDOF 3
