REMARK SMILES COc1ccc2cc(C(C)=O)c3ccccc3c2c1
REMARK SMILES IDX 3 1 19 2 18 3 17 4 16 5 15 6 14 7 13 8 12 9 8 10 7 11 6 12
REMARK SMILES IDX 5 13 4 14 2 15 1 16 9 17 11 18 10 19
REMARK H PARENT
ROOT
ATOM      1  C   UNL     1       3.107   0.007  -0.367  1.00  0.00    +0.119 A 
ATOM      2  C   UNL     1       1.950   0.796  -0.388  1.00  0.00    +0.055 A 
ATOM      3  C   UNL     1       0.667   0.299  -0.037  1.00  0.00    -0.007 A 
ATOM      4  C   UNL     1      -0.542   1.089  -0.035  1.00  0.00    -0.010 A 
ATOM      5  C   UNL     1      -0.569   2.464  -0.381  1.00  0.00    +0.009 A 
ATOM      6  C   UNL     1      -1.737   3.228  -0.350  1.00  0.00    +0.001 A 
ATOM      7  C   UNL     1      -2.928   2.643   0.039  1.00  0.00    +0.001 A 
ATOM      8  C   UNL     1      -2.947   1.293   0.381  1.00  0.00    +0.009 A 
ATOM      9  C   UNL     1      -1.779   0.490   0.334  1.00  0.00    -0.007 A 
ATOM     10  C   UNL     1      -1.786  -0.882   0.662  1.00  0.00    +0.026 A 
ATOM     11  C   UNL     1      -0.612  -1.638   0.688  1.00  0.00    +0.021 A 
ATOM     12  C   UNL     1       0.609  -1.064   0.340  1.00  0.00    -0.017 A 
ATOM     13  C   UNL     1       1.771  -1.853   0.363  1.00  0.00    +0.012 A 
ATOM     14  C   UNL     1       3.013  -1.324   0.012  1.00  0.00    +0.047 A 
ENDROOT
BRANCH   1  15
ATOM     15  O   UNL     1       4.251   0.660  -0.737  1.00  0.00    -0.497 OA
ATOM     16  C   UNL     1       5.458  -0.093  -0.714  1.00  0.00    +0.278 C 
ENDBRANCH   1  15
BRANCH  10  17
ATOM     17  C   UNL     1      -3.026  -1.625   0.981  1.00  0.00    +0.160 C 
ATOM     18  O   UNL     1      -3.151  -2.152   2.083  1.00  0.00    -0.294 OA
ATOM     19  C   UNL     1      -4.064  -1.763  -0.102  1.00  0.00    +0.093 C 
ENDBRANCH  10  17
TORSDOF 2
