REMARK SMILES Nc1ccc(C(=O)Nc2ccc(C(=O)Nc3ccc4c(O)cc(S(=O)(=O)O)cc4c3)cc2)cc1
REMARK SMILES IDX 9 1 10 2 11 3 12 4 31 5 32 6 8 7 6 8 7 9 5 11 2 12 3 13
REMARK SMILES IDX 34 14 4 15 33 16 1 17 13 20 14 21 15 22 16 24 30 25 17 26
REMARK SMILES IDX 29 27 18 28 28 29 19 30 23 31 20 32 22 33 24 34 25 35 26 36
REMARK SMILES IDX 27 37 21 39
REMARK H PARENT 8 10 1 18 1 19 15 23 27 38 21 40
ROOT
ATOM      1  C   UNL     1       3.134   0.365   0.178  1.00  0.00    +0.041 A 
ATOM      2  C   UNL     1       2.306   0.526  -0.936  1.00  0.00    +0.027 A 
ATOM      3  C   UNL     1       0.912   0.481  -0.803  1.00  0.00    +0.016 A 
ATOM      4  C   UNL     1       0.332   0.268   0.451  1.00  0.00    +0.040 A 
ATOM      5  C   UNL     1       1.155   0.131   1.573  1.00  0.00    +0.016 A 
ATOM      6  C   UNL     1       2.546   0.176   1.436  1.00  0.00    +0.027 A 
ENDROOT
BRANCH   1   7
ATOM      7  N   UNL     1       4.542   0.405   0.123  1.00  0.00    -0.322 N 
ATOM      8  C   UNL     1       5.333   0.479  -1.009  1.00  0.00    +0.255 C 
ATOM      9  O   UNL     1       4.955   0.442  -2.174  1.00  0.00    -0.269 OA
ATOM     10  H   UNL     1       5.020   0.289   1.008  1.00  0.00    +0.170 HD
BRANCH   8  11
ATOM     11  C   UNL     1       6.796   0.571  -0.744  1.00  0.00    +0.040 A 
ATOM     12  C   UNL     1       9.575   0.745  -0.344  1.00  0.00    +0.031 A 
ATOM     13  C   UNL     1       8.688   1.370   0.539  1.00  0.00    +0.026 A 
ATOM     14  C   UNL     1       9.055  -0.026  -1.386  1.00  0.00    +0.026 A 
ATOM     15  C   UNL     1       7.306   1.309   0.330  1.00  0.00    +0.016 A 
ATOM     16  C   UNL     1       7.676  -0.092  -1.606  1.00  0.00    +0.016 A 
BRANCH  12  17
ATOM     17  N   UNL     1      10.944   0.712  -0.060  1.00  0.00    -0.399 N 
ATOM     18  H   UNL     1      11.528   0.521  -0.869  1.00  0.00    +0.156 HD
ATOM     19  H   UNL     1      11.277   1.510   0.472  1.00  0.00    +0.156 HD
ENDBRANCH  12  17
ENDBRANCH   8  11
ENDBRANCH   1   7
BRANCH   4  20
ATOM     20  C   UNL     1      -1.145   0.211   0.638  1.00  0.00    +0.255 C 
ATOM     21  O   UNL     1      -1.613   0.636   1.687  1.00  0.00    -0.269 OA
ATOM     22  N   UNL     1      -1.843  -0.374  -0.404  1.00  0.00    -0.322 N 
ATOM     23  H   UNL     1      -1.294  -0.811  -1.133  1.00  0.00    +0.170 HD
BRANCH  22  24
ATOM     24  C   UNL     1      -3.241  -0.523  -0.519  1.00  0.00    +0.042 A 
ATOM     25  C   UNL     1      -4.162   0.025   0.373  1.00  0.00    +0.035 A 
ATOM     26  C   UNL     1      -3.719  -1.252  -1.608  1.00  0.00    +0.027 A 
ATOM     27  C   UNL     1      -5.548  -0.159   0.205  1.00  0.00    -0.011 A 
ATOM     28  C   UNL     1      -5.093  -1.448  -1.791  1.00  0.00    +0.015 A 
ATOM     29  C   UNL     1      -6.446   0.417   1.119  1.00  0.00    +0.032 A 
ATOM     30  C   UNL     1      -6.039  -0.918  -0.886  1.00  0.00    +0.024 A 
ATOM     31  C   UNL     1      -7.822   0.239   0.966  1.00  0.00    +0.098 A 
ATOM     32  C   UNL     1      -7.443  -1.083  -1.002  1.00  0.00    +0.124 A 
ATOM     33  C   UNL     1      -8.327  -0.505  -0.095  1.00  0.00    +0.069 A 
BRANCH  31  34
ATOM     34  S   UNL     1      -8.946   0.985   2.109  1.00  0.00    +0.294 S 
ATOM     35  O   UNL     1      -8.227   1.967   2.893  1.00  0.00    -0.194 OA
ATOM     36  O   UNL     1     -10.159   1.329   1.401  1.00  0.00    -0.194 OA
BRANCH  34  37
ATOM     37  O   UNL     1      -9.300  -0.204   3.141  1.00  0.00    -0.282 OA
ATOM     38  H   UNL     1      -9.207   0.157   4.047  1.00  0.00    +0.234 HD
ENDBRANCH  34  37
ENDBRANCH  31  34
BRANCH  32  39
ATOM     39  O   UNL     1      -8.038  -1.814  -1.996  1.00  0.00    -0.507 OA
ATOM     40  H   UNL     1      -7.372  -2.351  -2.451  1.00  0.00    +0.293 HD
ENDBRANCH  32  39
ENDBRANCH  22  24
ENDBRANCH   4  20
TORSDOF 8
