MODEL 1
REMARK VINA RESULT:   -10.087      0.000      0.000
REMARK INTER + INTRA:         -12.762
REMARK INTER:                 -12.445
REMARK INTRA:                  -0.317
REMARK UNBOUND:                -0.317
REMARK SMILES CCc1nc(Nc2ccc(Cl)cc2)c2cnn(-c3ccccc3)c2n1
REMARK SMILES IDX 3 1 4 2 5 3 14 4 15 5 16 6 17 7 24 8 25 9 2 10 1 11 6 12
REMARK SMILES IDX 7 14 8 15 13 16 9 17 12 18 10 19 11 20 18 21 19 22 23 23
REMARK SMILES IDX 20 24 22 25 21 26
REMARK H PARENT 6 13
ROOT
ATOM      1  C   UNL     1     -28.975   7.055   8.156  1.00  0.00    +0.133 A 
ATOM      2  N   UNL     1     -28.073   6.085   8.418  1.00  0.00    -0.215 NA
ATOM      3  C   UNL     1     -26.775   6.244   8.067  1.00  0.00    +0.145 A 
ATOM      4  C   UNL     1     -26.433   7.448   7.429  1.00  0.00    +0.082 A 
ATOM      5  C   UNL     1     -25.274   8.042   6.906  1.00  0.00    +0.150 A 
ATOM      6  N   UNL     1     -25.492   9.246   6.382  1.00  0.00    -0.174 NA
ATOM      7  N   UNL     1     -26.834   9.462   6.556  1.00  0.00    -0.215 N 
ATOM      8  C   UNL     1     -27.435   8.378   7.199  1.00  0.00    +0.168 A 
ATOM      9  N   UNL     1     -28.728   8.223   7.544  1.00  0.00    -0.213 NA
ENDROOT
BRANCH   1  10
ATOM     10  C   UNL     1     -30.399   6.782   8.559  1.00  0.00    +0.074 C 
ATOM     11  C   UNL     1     -31.374   7.564   7.693  1.00  0.00    +0.012 C 
ENDBRANCH   1  10
BRANCH   3  12
ATOM     12  N   UNL     1     -25.809   5.263   8.341  1.00  0.00    -0.340 N 
ATOM     13  H   UNL     1     -25.024   5.279   7.707  1.00  0.00    +0.168 HD
BRANCH  12  14
ATOM     14  C   UNL     1     -25.747   4.234   9.297  1.00  0.00    +0.040 A 
ATOM     15  C   UNL     1     -24.923   4.263  10.427  1.00  0.00    +0.027 A 
ATOM     16  C   UNL     1     -26.535   3.086   9.094  1.00  0.00    +0.027 A 
ATOM     17  C   UNL     1     -24.891   3.195  11.332  1.00  0.00    +0.022 A 
ATOM     18  C   UNL     1     -26.508   2.015   9.994  1.00  0.00    +0.022 A 
ATOM     19  C   UNL     1     -25.684   2.075  11.112  1.00  0.00    +0.041 A 
ATOM     20 Cl   UNL     1     -25.644   0.761  12.220  1.00  0.00    -0.084 Cl
ENDBRANCH  12  14
ENDBRANCH   3  12
BRANCH   7  21
ATOM     21  C   UNL     1     -27.416  10.682   6.092  1.00  0.00    +0.067 A 
ATOM     22  C   UNL     1     -28.747  11.024   6.366  1.00  0.00    +0.028 A 
ATOM     23  C   UNL     1     -26.631  11.570   5.336  1.00  0.00    +0.028 A 
ATOM     24  C   UNL     1     -29.278  12.227   5.891  1.00  0.00    +0.002 A 
ATOM     25  C   UNL     1     -27.168  12.770   4.863  1.00  0.00    +0.002 A 
ATOM     26  C   UNL     1     -28.492  13.098   5.142  1.00  0.00    +0.000 A 
ENDBRANCH   7  21
TORSDOF 4
ENDMDL
MODEL 2
REMARK VINA RESULT:    -9.899      2.951      4.961
REMARK INTER + INTRA:         -12.531
REMARK INTER:                 -12.323
REMARK INTRA:                  -0.208
REMARK UNBOUND:                -0.317
REMARK SMILES CCc1nc(Nc2ccc(Cl)cc2)c2cnn(-c3ccccc3)c2n1
REMARK SMILES IDX 3 1 4 2 5 3 14 4 15 5 16 6 17 7 24 8 25 9 2 10 1 11 6 12
REMARK SMILES IDX 7 14 8 15 13 16 9 17 12 18 10 19 11 20 18 21 19 22 23 23
REMARK SMILES IDX 20 24 22 25 21 26
REMARK H PARENT 6 13
ROOT
ATOM      1  C   UNL     1     -28.557   6.824   8.174  1.00  0.00    +0.133 A 
ATOM      2  N   UNL     1     -29.705   6.236   8.570  1.00  0.00    -0.215 NA
ATOM      3  C   UNL     1     -30.897   6.838   8.342  1.00  0.00    +0.145 A 
ATOM      4  C   UNL     1     -30.865   8.080   7.687  1.00  0.00    +0.082 A 
ATOM      5  C   UNL     1     -31.794   9.037   7.252  1.00  0.00    +0.150 A 
ATOM      6  N   UNL     1     -31.228  10.088   6.663  1.00  0.00    -0.174 NA
ATOM      7  N   UNL     1     -29.883   9.829   6.709  1.00  0.00    -0.215 N 
ATOM      8  C   UNL     1     -29.633   8.603   7.328  1.00  0.00    +0.168 A 
ATOM      9  N   UNL     1     -28.445   8.008   7.554  1.00  0.00    -0.213 NA
ENDROOT
BRANCH   1  10
ATOM     10  C   UNL     1     -27.279   6.094   8.490  1.00  0.00    +0.074 C 
ATOM     11  C   UNL     1     -26.164   6.502   7.541  1.00  0.00    +0.012 C 
ENDBRANCH   1  10
BRANCH   3  12
ATOM     12  N   UNL     1     -32.110   6.245   8.726  1.00  0.00    -0.340 N 
ATOM     13  H   UNL     1     -32.924   6.789   8.475  1.00  0.00    +0.168 HD
BRANCH  12  14
ATOM     14  C   UNL     1     -32.410   5.066   9.431  1.00  0.00    +0.040 A 
ATOM     15  C   UNL     1     -31.773   3.840   9.213  1.00  0.00    +0.027 A 
ATOM     16  C   UNL     1     -33.434   5.107  10.394  1.00  0.00    +0.027 A 
ATOM     17  C   UNL     1     -32.133   2.696   9.935  1.00  0.00    +0.022 A 
ATOM     18  C   UNL     1     -33.798   3.968  11.120  1.00  0.00    +0.022 A 
ATOM     19  C   UNL     1     -33.144   2.764  10.886  1.00  0.00    +0.041 A 
ATOM     20 Cl   UNL     1     -33.589   1.359  11.771  1.00  0.00    -0.084 Cl
ENDBRANCH  12  14
ENDBRANCH   3  12
BRANCH   7  21
ATOM     21  C   UNL     1     -28.965  10.775   6.159  1.00  0.00    +0.067 A 
ATOM     22  C   UNL     1     -27.644  10.434   5.842  1.00  0.00    +0.028 A 
ATOM     23  C   UNL     1     -29.398  12.093   5.926  1.00  0.00    +0.028 A 
ATOM     24  C   UNL     1     -26.776  11.392   5.306  1.00  0.00    +0.002 A 
ATOM     25  C   UNL     1     -28.526  13.046   5.392  1.00  0.00    +0.002 A 
ATOM     26  C   UNL     1     -27.215  12.694   5.082  1.00  0.00    +0.000 A 
ENDBRANCH   7  21
TORSDOF 4
ENDMDL
MODEL 3
REMARK VINA RESULT:    -9.417      6.047      9.007
REMARK INTER + INTRA:         -11.936
REMARK INTER:                 -11.155
REMARK INTRA:                  -0.781
REMARK UNBOUND:                -0.317
REMARK SMILES CCc1nc(Nc2ccc(Cl)cc2)c2cnn(-c3ccccc3)c2n1
REMARK SMILES IDX 3 1 4 2 5 3 14 4 15 5 16 6 17 7 24 8 25 9 2 10 1 11 6 12
REMARK SMILES IDX 7 14 8 15 13 16 9 17 12 18 10 19 11 20 18 21 19 22 23 23
REMARK SMILES IDX 20 24 22 25 21 26
REMARK H PARENT 6 13
ROOT
ATOM      1  C   UNL     1     -32.092   4.647   9.240  1.00  0.00    +0.133 A 
ATOM      2  N   UNL     1     -31.347   3.537   9.424  1.00  0.00    -0.215 NA
ATOM      3  C   UNL     1     -31.929   2.380   9.823  1.00  0.00    +0.145 A 
ATOM      4  C   UNL     1     -33.318   2.407  10.030  1.00  0.00    +0.082 A 
ATOM      5  C   UNL     1     -34.317   1.504  10.423  1.00  0.00    +0.150 A 
ATOM      6  N   UNL     1     -35.530   2.049  10.469  1.00  0.00    -0.174 NA
ATOM      7  N   UNL     1     -35.337   3.355  10.099  1.00  0.00    -0.215 N 
ATOM      8  C   UNL     1     -33.991   3.601   9.820  1.00  0.00    +0.168 A 
ATOM      9  N   UNL     1     -33.416   4.754   9.426  1.00  0.00    -0.213 NA
ENDROOT
BRANCH   1  10
ATOM     10  C   UNL     1     -31.358   5.893   8.820  1.00  0.00    +0.074 C 
ATOM     11  C   UNL     1     -32.124   6.645   7.744  1.00  0.00    +0.012 C 
ENDBRANCH   1  10
BRANCH   3  12
ATOM     12  N   UNL     1     -31.186   1.203  10.006  1.00  0.00    -0.340 N 
ATOM     13  H   UNL     1     -30.696   0.899   9.177  1.00  0.00    +0.168 HD
BRANCH  12  14
ATOM     14  C   UNL     1     -31.028   0.342  11.107  1.00  0.00    +0.040 A 
ATOM     15  C   UNL     1     -30.976  -1.052  11.009  1.00  0.00    +0.027 A 
ATOM     16  C   UNL     1     -30.950   0.910  12.392  1.00  0.00    +0.027 A 
ATOM     17  C   UNL     1     -30.839  -1.856  12.148  1.00  0.00    +0.022 A 
ATOM     18  C   UNL     1     -30.813   0.113  13.533  1.00  0.00    +0.022 A 
ATOM     19  C   UNL     1     -30.758  -1.270  13.406  1.00  0.00    +0.041 A 
ATOM     20 Cl   UNL     1     -30.592  -2.255  14.804  1.00  0.00    -0.084 Cl
ENDBRANCH  12  14
ENDBRANCH   3  12
BRANCH   7  21
ATOM     21  C   UNL     1     -36.454   4.244  10.047  1.00  0.00    +0.067 A 
ATOM     22  C   UNL     1     -37.477   4.100   9.101  1.00  0.00    +0.028 A 
ATOM     23  C   UNL     1     -36.533   5.299  10.974  1.00  0.00    +0.028 A 
ATOM     24  C   UNL     1     -38.554   4.993   9.083  1.00  0.00    +0.002 A 
ATOM     25  C   UNL     1     -37.610   6.189  10.951  1.00  0.00    +0.002 A 
ATOM     26  C   UNL     1     -38.621   6.035  10.005  1.00  0.00    +0.000 A 
ENDBRANCH   7  21
TORSDOF 4
ENDMDL
MODEL 4
REMARK VINA RESULT:    -9.364      3.520      8.942
REMARK INTER + INTRA:         -11.871
REMARK INTER:                 -11.521
REMARK INTRA:                  -0.349
REMARK UNBOUND:                -0.317
REMARK SMILES CCc1nc(Nc2ccc(Cl)cc2)c2cnn(-c3ccccc3)c2n1
REMARK SMILES IDX 3 1 4 2 5 3 14 4 15 5 16 6 17 7 24 8 25 9 2 10 1 11 6 12
REMARK SMILES IDX 7 14 8 15 13 16 9 17 12 18 10 19 11 20 18 21 19 22 23 23
REMARK SMILES IDX 20 24 22 25 21 26
REMARK H PARENT 6 13
ROOT
ATOM      1  C   UNL     1     -24.572   3.037  10.632  1.00  0.00    +0.133 A 
ATOM      2  N   UNL     1     -24.560   3.846   9.552  1.00  0.00    -0.215 NA
ATOM      3  C   UNL     1     -25.718   4.183   8.935  1.00  0.00    +0.145 A 
ATOM      4  C   UNL     1     -26.901   3.652   9.474  1.00  0.00    +0.082 A 
ATOM      5  C   UNL     1     -28.276   3.712   9.197  1.00  0.00    +0.150 A 
ATOM      6  N   UNL     1     -29.013   2.995  10.040  1.00  0.00    -0.174 NA
ATOM      7  N   UNL     1     -28.107   2.435  10.903  1.00  0.00    -0.215 N 
ATOM      8  C   UNL     1     -26.806   2.824  10.582  1.00  0.00    +0.168 A 
ATOM      9  N   UNL     1     -25.656   2.484  11.197  1.00  0.00    -0.213 NA
ENDROOT
BRANCH   1  10
ATOM     10  C   UNL     1     -23.237   2.697  11.238  1.00  0.00    +0.074 C 
ATOM     11  C   UNL     1     -22.650   1.445  10.605  1.00  0.00    +0.012 C 
ENDBRANCH   1  10
BRANCH   3  12
ATOM     12  N   UNL     1     -25.741   5.036   7.821  1.00  0.00    -0.340 N 
ATOM     13  H   UNL     1     -25.225   4.683   7.029  1.00  0.00    +0.168 HD
BRANCH  12  14
ATOM     14  C   UNL     1     -26.306   6.307   7.610  1.00  0.00    +0.040 A 
ATOM     15  C   UNL     1     -27.565   6.692   8.081  1.00  0.00    +0.027 A 
ATOM     16  C   UNL     1     -25.578   7.243   6.854  1.00  0.00    +0.027 A 
ATOM     17  C   UNL     1     -28.080   7.968   7.818  1.00  0.00    +0.022 A 
ATOM     18  C   UNL     1     -26.086   8.519   6.588  1.00  0.00    +0.022 A 
ATOM     19  C   UNL     1     -27.338   8.877   7.073  1.00  0.00    +0.041 A 
ATOM     20 Cl   UNL     1     -27.970  10.441   6.748  1.00  0.00    -0.084 Cl
ENDBRANCH  12  14
ENDBRANCH   3  12
BRANCH   7  21
ATOM     21  C   UNL     1     -28.570   1.581  11.952  1.00  0.00    +0.067 A 
ATOM     22  C   UNL     1     -29.214   0.365  11.693  1.00  0.00    +0.028 A 
ATOM     23  C   UNL     1     -28.374   1.972  13.289  1.00  0.00    +0.028 A 
ATOM     24  C   UNL     1     -29.654  -0.440  12.749  1.00  0.00    +0.002 A 
ATOM     25  C   UNL     1     -28.816   1.164  14.340  1.00  0.00    +0.002 A 
ATOM     26  C   UNL     1     -29.456  -0.043  14.068  1.00  0.00    +0.000 A 
ENDBRANCH   7  21
TORSDOF 4
ENDMDL
MODEL 5
REMARK VINA RESULT:    -9.053      5.576      7.609
REMARK INTER + INTRA:         -11.487
REMARK INTER:                 -10.862
REMARK INTRA:                  -0.625
REMARK UNBOUND:                -0.317
REMARK SMILES CCc1nc(Nc2ccc(Cl)cc2)c2cnn(-c3ccccc3)c2n1
REMARK SMILES IDX 3 1 4 2 5 3 14 4 15 5 16 6 17 7 24 8 25 9 2 10 1 11 6 12
REMARK SMILES IDX 7 14 8 15 13 16 9 17 12 18 10 19 11 20 18 21 19 22 23 23
REMARK SMILES IDX 20 24 22 25 21 26
REMARK H PARENT 6 13
ROOT
ATOM      1  C   UNL     1     -36.219   4.726   9.409  1.00  0.00    +0.133 A 
ATOM      2  N   UNL     1     -36.010   3.730  10.295  1.00  0.00    -0.215 NA
ATOM      3  C   UNL     1     -34.758   3.270  10.526  1.00  0.00    +0.145 A 
ATOM      4  C   UNL     1     -33.716   3.874   9.803  1.00  0.00    +0.082 A 
ATOM      5  C   UNL     1     -32.322   3.747   9.706  1.00  0.00    +0.150 A 
ATOM      6  N   UNL     1     -31.778   4.591   8.834  1.00  0.00    -0.174 NA
ATOM      7  N   UNL     1     -32.836   5.300   8.330  1.00  0.00    -0.215 N 
ATOM      8  C   UNL     1     -34.036   4.885   8.910  1.00  0.00    +0.168 A 
ATOM      9  N   UNL     1     -35.281   5.345   8.676  1.00  0.00    -0.213 NA
ENDROOT
BRANCH   1  10
ATOM     10  C   UNL     1     -37.646   5.158   9.198  1.00  0.00    +0.074 C 
ATOM     11  C   UNL     1     -38.566   4.537  10.236  1.00  0.00    +0.012 C 
ENDBRANCH   1  10
BRANCH   3  12
ATOM     12  N   UNL     1     -34.505   2.247  11.455  1.00  0.00    -0.340 N 
ATOM     13  H   UNL     1     -35.183   2.202  12.202  1.00  0.00    +0.168 HD
BRANCH  12  14
ATOM     14  C   UNL     1     -33.467   1.306  11.570  1.00  0.00    +0.040 A 
ATOM     15  C   UNL     1     -33.302   0.213  10.713  1.00  0.00    +0.027 A 
ATOM     16  C   UNL     1     -32.553   1.448  12.630  1.00  0.00    +0.027 A 
ATOM     17  C   UNL     1     -32.258  -0.702  10.896  1.00  0.00    +0.022 A 
ATOM     18  C   UNL     1     -31.507   0.538  12.818  1.00  0.00    +0.022 A 
ATOM     19  C   UNL     1     -31.364  -0.536  11.948  1.00  0.00    +0.041 A 
ATOM     20 Cl   UNL     1     -30.084  -1.660  12.174  1.00  0.00    -0.084 Cl
ENDBRANCH  12  14
ENDBRANCH   3  12
BRANCH   7  21
ATOM     21  C   UNL     1     -32.602   6.307   7.343  1.00  0.00    +0.067 A 
ATOM     22  C   UNL     1     -33.112   6.207   6.042  1.00  0.00    +0.028 A 
ATOM     23  C   UNL     1     -31.836   7.436   7.685  1.00  0.00    +0.028 A 
ATOM     24  C   UNL     1     -32.858   7.214   5.105  1.00  0.00    +0.002 A 
ATOM     25  C   UNL     1     -31.585   8.438   6.745  1.00  0.00    +0.002 A 
ATOM     26  C   UNL     1     -32.097   8.327   5.454  1.00  0.00    +0.000 A 
ENDBRANCH   7  21
TORSDOF 4
ENDMDL
MODEL 6
REMARK VINA RESULT:    -8.965      5.048      7.533
REMARK INTER + INTRA:         -11.379
REMARK INTER:                 -10.834
REMARK INTRA:                  -0.545
REMARK UNBOUND:                -0.317
REMARK SMILES CCc1nc(Nc2ccc(Cl)cc2)c2cnn(-c3ccccc3)c2n1
REMARK SMILES IDX 3 1 4 2 5 3 14 4 15 5 16 6 17 7 24 8 25 9 2 10 1 11 6 12
REMARK SMILES IDX 7 14 8 15 13 16 9 17 12 18 10 19 11 20 18 21 19 22 23 23
REMARK SMILES IDX 20 24 22 25 21 26
REMARK H PARENT 6 13
ROOT
ATOM      1  C   UNL     1     -30.990   1.524  10.376  1.00  0.00    +0.133 A 
ATOM      2  N   UNL     1     -29.752   1.985  10.100  1.00  0.00    -0.215 NA
ATOM      3  C   UNL     1     -29.582   3.223   9.578  1.00  0.00    +0.145 A 
ATOM      4  C   UNL     1     -30.744   3.979   9.346  1.00  0.00    +0.082 A 
ATOM      5  C   UNL     1     -31.061   5.251   8.846  1.00  0.00    +0.150 A 
ATOM      6  N   UNL     1     -32.368   5.497   8.829  1.00  0.00    -0.174 NA
ATOM      7  N   UNL     1     -32.943   4.357   9.328  1.00  0.00    -0.215 N 
ATOM      8  C   UNL     1     -31.970   3.412   9.657  1.00  0.00    +0.168 A 
ATOM      9  N   UNL     1     -32.144   2.179  10.174  1.00  0.00    -0.213 NA
ENDROOT
BRANCH   1  10
ATOM     10  C   UNL     1     -31.086   0.128  10.930  1.00  0.00    +0.074 C 
ATOM     11  C   UNL     1     -30.997  -0.910   9.823  1.00  0.00    +0.012 C 
ENDBRANCH   1  10
BRANCH   3  12
ATOM     12  N   UNL     1     -28.307   3.739   9.296  1.00  0.00    -0.340 N 
ATOM     13  H   UNL     1     -28.322   4.552   8.697  1.00  0.00    +0.168 HD
BRANCH  12  14
ATOM     14  C   UNL     1     -27.014   3.316   9.648  1.00  0.00    +0.040 A 
ATOM     15  C   UNL     1     -26.553   2.003   9.505  1.00  0.00    +0.027 A 
ATOM     16  C   UNL     1     -26.133   4.258  10.208  1.00  0.00    +0.027 A 
ATOM     17  C   UNL     1     -25.258   1.640   9.895  1.00  0.00    +0.022 A 
ATOM     18  C   UNL     1     -24.838   3.904  10.600  1.00  0.00    +0.022 A 
ATOM     19  C   UNL     1     -24.404   2.592  10.441  1.00  0.00    +0.041 A 
ATOM     20 Cl   UNL     1     -22.816   2.148  10.923  1.00  0.00    -0.084 Cl
ENDBRANCH  12  14
ENDBRANCH   3  12
BRANCH   7  21
ATOM     21  C   UNL     1     -34.365   4.279   9.443  1.00  0.00    +0.067 A 
ATOM     22  C   UNL     1     -35.174   3.842   8.386  1.00  0.00    +0.028 A 
ATOM     23  C   UNL     1     -34.975   4.651  10.654  1.00  0.00    +0.028 A 
ATOM     24  C   UNL     1     -36.563   3.782   8.539  1.00  0.00    +0.002 A 
ATOM     25  C   UNL     1     -36.364   4.590  10.800  1.00  0.00    +0.002 A 
ATOM     26  C   UNL     1     -37.157   4.155   9.742  1.00  0.00    +0.000 A 
ENDBRANCH   7  21
TORSDOF 4
ENDMDL
MODEL 7
REMARK VINA RESULT:    -8.852      9.241     13.072
REMARK INTER + INTRA:         -11.239
REMARK INTER:                 -10.576
REMARK INTRA:                  -0.663
REMARK UNBOUND:                -0.317
REMARK SMILES CCc1nc(Nc2ccc(Cl)cc2)c2cnn(-c3ccccc3)c2n1
REMARK SMILES IDX 3 1 4 2 5 3 14 4 15 5 16 6 17 7 24 8 25 9 2 10 1 11 6 12
REMARK SMILES IDX 7 14 8 15 13 16 9 17 12 18 10 19 11 20 18 21 19 22 23 23
REMARK SMILES IDX 20 24 22 25 21 26
REMARK H PARENT 6 13
ROOT
ATOM      1  C   UNL     1     -38.290   4.523  10.328  1.00  0.00    +0.133 A 
ATOM      2  N   UNL     1     -37.019   4.755   9.938  1.00  0.00    -0.215 NA
ATOM      3  C   UNL     1     -36.094   3.768   9.994  1.00  0.00    +0.145 A 
ATOM      4  C   UNL     1     -36.526   2.520  10.472  1.00  0.00    +0.082 A 
ATOM      5  C   UNL     1     -35.964   1.255  10.700  1.00  0.00    +0.150 A 
ATOM      6  N   UNL     1     -36.834   0.374  11.187  1.00  0.00    -0.174 NA
ATOM      7  N   UNL     1     -38.011   1.069  11.290  1.00  0.00    -0.215 N 
ATOM      8  C   UNL     1     -37.852   2.386  10.855  1.00  0.00    +0.168 A 
ATOM      9  N   UNL     1     -38.775   3.366  10.803  1.00  0.00    -0.213 NA
ENDROOT
BRANCH   1  10
ATOM     10  C   UNL     1     -39.245   5.685  10.254  1.00  0.00    +0.074 C 
ATOM     11  C   UNL     1     -38.864   6.637   9.132  1.00  0.00    +0.012 C 
ENDBRANCH   1  10
BRANCH   3  12
ATOM     12  N   UNL     1     -34.768   3.972   9.580  1.00  0.00    -0.340 N 
ATOM     13  H   UNL     1     -34.085   3.526  10.174  1.00  0.00    +0.168 HD
BRANCH  12  14
ATOM     14  C   UNL     1     -34.207   4.715   8.526  1.00  0.00    +0.040 A 
ATOM     15  C   UNL     1     -34.738   4.764   7.233  1.00  0.00    +0.027 A 
ATOM     16  C   UNL     1     -33.021   5.431   8.772  1.00  0.00    +0.027 A 
ATOM     17  C   UNL     1     -34.118   5.507   6.220  1.00  0.00    +0.022 A 
ATOM     18  C   UNL     1     -32.397   6.175   7.766  1.00  0.00    +0.022 A 
ATOM     19  C   UNL     1     -32.950   6.210   6.491  1.00  0.00    +0.041 A 
ATOM     20 Cl   UNL     1     -32.186   7.121   5.249  1.00  0.00    -0.084 Cl
ENDBRANCH  12  14
ENDBRANCH   3  12
BRANCH   7  21
ATOM     21  C   UNL     1     -39.174   0.410  11.794  1.00  0.00    +0.067 A 
ATOM     22  C   UNL     1     -39.870   0.883  12.915  1.00  0.00    +0.028 A 
ATOM     23  C   UNL     1     -39.639  -0.749  11.148  1.00  0.00    +0.028 A 
ATOM     24  C   UNL     1     -41.004   0.207  13.378  1.00  0.00    +0.002 A 
ATOM     25  C   UNL     1     -40.772  -1.420  11.616  1.00  0.00    +0.002 A 
ATOM     26  C   UNL     1     -41.454  -0.941  12.731  1.00  0.00    +0.000 A 
ENDBRANCH   7  21
TORSDOF 4
ENDMDL
MODEL 8
REMARK VINA RESULT:    -8.804      4.097      9.901
REMARK INTER + INTRA:         -11.179
REMARK INTER:                 -11.311
REMARK INTRA:                   0.132
REMARK UNBOUND:                -0.317
REMARK SMILES CCc1nc(Nc2ccc(Cl)cc2)c2cnn(-c3ccccc3)c2n1
REMARK SMILES IDX 3 1 4 2 5 3 14 4 15 5 16 6 17 7 24 8 25 9 2 10 1 11 6 12
REMARK SMILES IDX 7 14 8 15 13 16 9 17 12 18 10 19 11 20 18 21 19 22 23 23
REMARK SMILES IDX 20 24 22 25 21 26
REMARK H PARENT 6 13
ROOT
ATOM      1  C   UNL     1     -25.329   1.698  10.072  1.00  0.00    +0.133 A 
ATOM      2  N   UNL     1     -25.740   2.895   9.602  1.00  0.00    -0.215 NA
ATOM      3  C   UNL     1     -27.047   3.243   9.667  1.00  0.00    +0.145 A 
ATOM      4  C   UNL     1     -27.926   2.307  10.237  1.00  0.00    +0.082 A 
ATOM      5  C   UNL     1     -29.299   2.220  10.511  1.00  0.00    +0.150 A 
ATOM      6  N   UNL     1     -29.648   1.069  11.082  1.00  0.00    -0.174 NA
ATOM      7  N   UNL     1     -28.477   0.366  11.189  1.00  0.00    -0.215 N 
ATOM      8  C   UNL     1     -27.405   1.103  10.683  1.00  0.00    +0.168 A 
ATOM      9  N   UNL     1     -26.106   0.751  10.618  1.00  0.00    -0.213 NA
ENDROOT
BRANCH   1  10
ATOM     10  C   UNL     1     -23.863   1.386   9.936  1.00  0.00    +0.074 C 
ATOM     11  C   UNL     1     -23.046   2.110  10.994  1.00  0.00    +0.012 C 
ENDBRANCH   1  10
BRANCH   3  12
ATOM     12  N   UNL     1     -27.505   4.487   9.204  1.00  0.00    -0.340 N 
ATOM     13  H   UNL     1     -28.476   4.667   9.418  1.00  0.00    +0.168 HD
BRANCH  12  14
ATOM     14  C   UNL     1     -26.888   5.509   8.461  1.00  0.00    +0.040 A 
ATOM     15  C   UNL     1     -25.543   5.496   8.078  1.00  0.00    +0.027 A 
ATOM     16  C   UNL     1     -27.657   6.632   8.105  1.00  0.00    +0.027 A 
ATOM     17  C   UNL     1     -24.983   6.556   7.355  1.00  0.00    +0.022 A 
ATOM     18  C   UNL     1     -27.104   7.695   7.383  1.00  0.00    +0.022 A 
ATOM     19  C   UNL     1     -25.765   7.652   7.011  1.00  0.00    +0.041 A 
ATOM     20 Cl   UNL     1     -25.078   8.956   6.126  1.00  0.00    -0.084 Cl
ENDBRANCH  12  14
ENDBRANCH   3  12
BRANCH   7  21
ATOM     21  C   UNL     1     -28.492  -0.942  11.765  1.00  0.00    +0.067 A 
ATOM     22  C   UNL     1     -29.655  -1.502  12.311  1.00  0.00    +0.028 A 
ATOM     23  C   UNL     1     -27.304  -1.694  11.786  1.00  0.00    +0.028 A 
ATOM     24  C   UNL     1     -29.626  -2.785  12.866  1.00  0.00    +0.002 A 
ATOM     25  C   UNL     1     -27.282  -2.975  12.343  1.00  0.00    +0.002 A 
ATOM     26  C   UNL     1     -28.444  -3.521  12.883  1.00  0.00    +0.000 A 
ENDBRANCH   7  21
TORSDOF 4
ENDMDL
MODEL 9
REMARK VINA RESULT:    -8.688      5.337      8.453
REMARK INTER + INTRA:         -11.037
REMARK INTER:                 -10.503
REMARK INTRA:                  -0.534
REMARK UNBOUND:                -0.317
REMARK SMILES CCc1nc(Nc2ccc(Cl)cc2)c2cnn(-c3ccccc3)c2n1
REMARK SMILES IDX 3 1 4 2 5 3 14 4 15 5 16 6 17 7 24 8 25 9 2 10 1 11 6 12
REMARK SMILES IDX 7 14 8 15 13 16 9 17 12 18 10 19 11 20 18 21 19 22 23 23
REMARK SMILES IDX 20 24 22 25 21 26
REMARK H PARENT 6 13
ROOT
ATOM      1  C   UNL     1     -27.000   3.301   9.627  1.00  0.00    +0.133 A 
ATOM      2  N   UNL     1     -25.845   2.691   9.969  1.00  0.00    -0.215 NA
ATOM      3  C   UNL     1     -25.862   1.565  10.721  1.00  0.00    +0.145 A 
ATOM      4  C   UNL     1     -27.122   1.085  11.116  1.00  0.00    +0.082 A 
ATOM      5  C   UNL     1     -27.624   0.008  11.863  1.00  0.00    +0.150 A 
ATOM      6  N   UNL     1     -28.952   0.004  11.949  1.00  0.00    -0.174 NA
ATOM      7  N   UNL     1     -29.349   1.111  11.245  1.00  0.00    -0.215 N 
ATOM      8  C   UNL     1     -28.247   1.789  10.720  1.00  0.00    +0.168 A 
ATOM      9  N   UNL     1     -28.235   2.911   9.973  1.00  0.00    -0.213 NA
ENDROOT
BRANCH   1  10
ATOM     10  C   UNL     1     -26.884   4.560   8.810  1.00  0.00    +0.074 C 
ATOM     11  C   UNL     1     -25.461   5.095   8.824  1.00  0.00    +0.012 C 
ENDBRANCH   1  10
BRANCH   3  12
ATOM     12  N   UNL     1     -24.680   0.896  11.078  1.00  0.00    -0.340 N 
ATOM     13  H   UNL     1     -24.142   1.374  11.787  1.00  0.00    +0.168 HD
BRANCH  12  14
ATOM     14  C   UNL     1     -24.080  -0.285  10.608  1.00  0.00    +0.040 A 
ATOM     15  C   UNL     1     -24.781  -1.335  10.008  1.00  0.00    +0.027 A 
ATOM     16  C   UNL     1     -22.692  -0.440  10.777  1.00  0.00    +0.027 A 
ATOM     17  C   UNL     1     -24.126  -2.496   9.580  1.00  0.00    +0.022 A 
ATOM     18  C   UNL     1     -22.030  -1.597  10.351  1.00  0.00    +0.022 A 
ATOM     19  C   UNL     1     -22.752  -2.623   9.753  1.00  0.00    +0.041 A 
ATOM     20 Cl   UNL     1     -21.947  -4.048   9.230  1.00  0.00    -0.084 Cl
ENDBRANCH  12  14
ENDBRANCH   3  12
BRANCH   7  21
ATOM     21  C   UNL     1     -30.741   1.416  11.140  1.00  0.00    +0.067 A 
ATOM     22  C   UNL     1     -31.295   1.978   9.982  1.00  0.00    +0.028 A 
ATOM     23  C   UNL     1     -31.585   1.145  12.232  1.00  0.00    +0.028 A 
ATOM     24  C   UNL     1     -32.663   2.263   9.922  1.00  0.00    +0.002 A 
ATOM     25  C   UNL     1     -32.951   1.433  12.165  1.00  0.00    +0.002 A 
ATOM     26  C   UNL     1     -33.489   1.992  11.009  1.00  0.00    +0.000 A 
ENDBRANCH   7  21
TORSDOF 4
ENDMDL
