REMARK SMILES CC1(C)O[C@H]2O[C@H](COC(=O)c3ccccc3)[C@H](OC(=O)c3ccccc3)[C@@H](OC(=O)c3ccccc3)[C@H]2O1
REMARK SMILES IDX 1 1 2 2 3 3 4 4 5 5 6 6 7 7 18 8 28 9 38 10 39 11 29 12
REMARK SMILES IDX 30 13 31 14 32 15 33 16 37 17 34 18 36 19 35 20 8 21 9 22
REMARK SMILES IDX 10 23 11 24 12 25 13 26 17 27 14 28 16 29 15 30 19 31 20 32
REMARK SMILES IDX 21 33 22 34 23 35 27 36 24 37 26 38 25 39
REMARK H PARENT
ROOT
ATOM      1  C   UNL     1       0.906  -3.496   2.976  1.00  0.00    +0.075 C 
ATOM      2  C   UNL     1      -0.214  -3.033   2.045  1.00  0.00    +0.166 C 
ATOM      3  C   UNL     1      -1.324  -4.074   1.989  1.00  0.00    +0.075 C 
ATOM      4  O   UNL     1       0.316  -2.837   0.733  1.00  0.00    -0.319 OA
ATOM      5  C   UNL     1       0.621  -1.446   0.656  1.00  0.00    +0.287 C 
ATOM      6  O   UNL     1       0.499  -0.988  -0.686  1.00  0.00    -0.339 OA
ATOM      7  C   UNL     1       0.289   0.433  -0.807  1.00  0.00    +0.204 C 
ATOM      8  C   UNL     1      -1.050   0.856  -0.135  1.00  0.00    +0.253 C 
ATOM      9  C   UNL     1      -1.559  -0.204   0.867  1.00  0.00    +0.254 C 
ATOM     10  C   UNL     1      -0.360  -0.793   1.617  1.00  0.00    +0.223 C 
ATOM     11  O   UNL     1      -0.745  -1.804   2.552  1.00  0.00    -0.338 OA
ENDROOT
BRANCH   9  12
ATOM     12  O   UNL     1      -2.249  -1.260   0.161  1.00  0.00    -0.452 OA
BRANCH  12  13
ATOM     13  C   UNL     1      -3.537  -1.014  -0.174  1.00  0.00    +0.338 C 
ATOM     14  O   UNL     1      -4.162  -0.004   0.105  1.00  0.00    -0.246 OA
BRANCH  13  15
ATOM     15  C   UNL     1      -4.099  -2.154  -0.946  1.00  0.00    +0.060 A 
ATOM     16  C   UNL     1      -5.478  -2.169  -1.197  1.00  0.00    +0.015 A 
ATOM     17  C   UNL     1      -3.296  -3.193  -1.438  1.00  0.00    +0.015 A 
ATOM     18  C   UNL     1      -6.048  -3.216  -1.923  1.00  0.00    +0.001 A 
ATOM     19  C   UNL     1      -3.872  -4.239  -2.163  1.00  0.00    +0.001 A 
ATOM     20  C   UNL     1      -5.246  -4.250  -2.403  1.00  0.00    +0.000 A 
ENDBRANCH  13  15
ENDBRANCH  12  13
ENDBRANCH   9  12
BRANCH   7  21
ATOM     21  C   UNL     1       1.534   1.218  -0.352  1.00  0.00    +0.269 C 
BRANCH  21  22
ATOM     22  O   UNL     1       2.681   0.711  -1.057  1.00  0.00    -0.459 OA
BRANCH  22  23
ATOM     23  C   UNL     1       3.875   1.122  -0.568  1.00  0.00    +0.338 C 
ATOM     24  O   UNL     1       4.033   1.865   0.387  1.00  0.00    -0.246 OA
BRANCH  23  25
ATOM     25  C   UNL     1       4.992   0.538  -1.360  1.00  0.00    +0.060 A 
ATOM     26  C   UNL     1       4.778  -0.393  -2.385  1.00  0.00    +0.015 A 
ATOM     27  C   UNL     1       6.300   0.938  -1.053  1.00  0.00    +0.015 A 
ATOM     28  C   UNL     1       5.862  -0.913  -3.097  1.00  0.00    +0.001 A 
ATOM     29  C   UNL     1       7.380   0.416  -1.767  1.00  0.00    +0.001 A 
ATOM     30  C   UNL     1       7.161  -0.508  -2.788  1.00  0.00    +0.000 A 
ENDBRANCH  23  25
ENDBRANCH  22  23
ENDBRANCH  21  22
ENDBRANCH   7  21
BRANCH   8  31
ATOM     31  O   UNL     1      -0.940   2.109   0.575  1.00  0.00    -0.452 OA
BRANCH  31  32
ATOM     32  C   UNL     1      -1.074   3.226  -0.186  1.00  0.00    +0.338 C 
ATOM     33  O   UNL     1      -1.137   3.240  -1.405  1.00  0.00    -0.246 OA
BRANCH  32  34
ATOM     34  C   UNL     1      -1.101   4.447   0.662  1.00  0.00    +0.060 A 
ATOM     35  C   UNL     1      -1.208   5.691   0.025  1.00  0.00    +0.015 A 
ATOM     36  C   UNL     1      -1.031   4.393   2.061  1.00  0.00    +0.015 A 
ATOM     37  C   UNL     1      -1.243   6.867   0.777  1.00  0.00    +0.001 A 
ATOM     38  C   UNL     1      -1.066   5.572   2.809  1.00  0.00    +0.001 A 
ATOM     39  C   UNL     1      -1.172   6.806   2.168  1.00  0.00    +0.000 A 
ENDBRANCH  32  34
ENDBRANCH  31  32
ENDBRANCH   8  31
TORSDOF 10
