REMARK SMILES Cn1ncc2c(Nc3ccccc3)nc(Nc3ccccc3)nc21
REMARK SMILES IDX 1 1 2 2 3 3 4 4 5 5 24 6 23 7 15 8 14 9 6 10 7 11 8 13 9 14
REMARK SMILES IDX 13 15 10 16 12 17 11 18 16 19 17 21 18 22 22 23 19 24 21 25
REMARK SMILES IDX 20 26
REMARK H PARENT 7 12 16 20
ROOT
ATOM      1  C   UNL     1       0.853   0.056  -5.547  1.00  0.00    +0.176 C 
ATOM      2  N   UNL     1      -0.093  -0.216  -4.494  1.00  0.00    -0.250 N 
ATOM      3  N   UNL     1      -1.342  -0.628  -4.813  1.00  0.00    -0.179 NA
ATOM      4  C   UNL     1      -1.928  -0.777  -3.620  1.00  0.00    +0.149 A 
ATOM      5  C   UNL     1      -1.069  -0.471  -2.544  1.00  0.00    +0.082 A 
ATOM      6  C   UNL     1       0.119  -0.107  -3.147  1.00  0.00    +0.165 A 
ATOM      7  N   UNL     1       1.246   0.273  -2.529  1.00  0.00    -0.193 NA
ATOM      8  C   UNL     1       1.143   0.258  -1.190  1.00  0.00    +0.231 A 
ATOM      9  N   UNL     1       0.027  -0.068  -0.508  1.00  0.00    -0.194 NA
ATOM     10  C   UNL     1      -1.115  -0.434  -1.146  1.00  0.00    +0.147 A 
ENDROOT
BRANCH  10  11
ATOM     11  N   UNL     1      -2.272  -0.794  -0.439  1.00  0.00    -0.339 N 
ATOM     12  H   UNL     1      -3.013  -1.162  -1.018  1.00  0.00    +0.168 HD
BRANCH  11  13
ATOM     13  C   UNL     1      -2.628  -0.637   0.911  1.00  0.00    +0.040 A 
ATOM     14  C   UNL     1      -1.921   0.165   1.812  1.00  0.00    +0.026 A 
ATOM     15  C   UNL     1      -3.720  -1.369   1.408  1.00  0.00    +0.026 A 
ATOM     16  C   UNL     1      -2.298   0.252   3.157  1.00  0.00    +0.002 A 
ATOM     17  C   UNL     1      -4.101  -1.287   2.751  1.00  0.00    +0.002 A 
ATOM     18  C   UNL     1      -3.389  -0.473   3.626  1.00  0.00    +0.000 A 
ENDBRANCH  11  13
ENDBRANCH  10  11
BRANCH   8  19
ATOM     19  N   UNL     1       2.301   0.648  -0.520  1.00  0.00    -0.324 N 
ATOM     20  H   UNL     1       3.009   0.894  -1.196  1.00  0.00    +0.170 HD
BRANCH  19  21
ATOM     21  C   UNL     1       2.718   0.563   0.813  1.00  0.00    +0.041 A 
ATOM     22  C   UNL     1       2.005  -0.107   1.812  1.00  0.00    +0.026 A 
ATOM     23  C   UNL     1       3.884   1.247   1.196  1.00  0.00    +0.026 A 
ATOM     24  C   UNL     1       2.448  -0.118   3.139  1.00  0.00    +0.002 A 
ATOM     25  C   UNL     1       4.333   1.240   2.520  1.00  0.00    +0.002 A 
ATOM     26  C   UNL     1       3.613   0.555   3.493  1.00  0.00    +0.000 A 
ENDBRANCH  19  21
ENDBRANCH   8  19
TORSDOF 4
