MODEL 1
REMARK VINA RESULT:   -10.364      0.000      0.000
REMARK INTER + INTRA:         -10.364
REMARK INTER:                 -10.364
REMARK INTRA:                   0.000
REMARK UNBOUND:                 0.000
REMARK SMILES O=C1c2ccccc2C(=O)c2cc(Cl)ccc21
REMARK SMILES IDX 14 1 13 2 12 3 11 4 17 5 16 6 15 7 2 8 1 9 3 10 8 11 7 12
REMARK SMILES IDX 6 13 5 14 4 15 9 16 10 17
REMARK H PARENT
ROOT
ATOM      1 Cl   UNL     1     -26.680   4.288   8.817  1.00  0.00    -0.084 Cl
ATOM      2  C   UNL     1     -26.520   5.831   8.076  1.00  0.00    +0.041 A 
ATOM      3  C   UNL     1     -27.631   6.667   7.970  1.00  0.00    +0.033 A 
ATOM      4  C   UNL     1     -27.496   7.924   7.365  1.00  0.00    +0.035 A 
ATOM      5  C   UNL     1     -26.258   8.336   6.873  1.00  0.00    +0.034 A 
ATOM      6  C   UNL     1     -25.146   7.490   6.983  1.00  0.00    +0.014 A 
ATOM      7  C   UNL     1     -25.279   6.236   7.586  1.00  0.00    +0.021 A 
ATOM      8  C   UNL     1     -26.108   9.659   6.234  1.00  0.00    +0.194 C 
ATOM      9  O   UNL     1     -25.018  10.017   5.803  1.00  0.00    -0.289 OA
ATOM     10  C   UNL     1     -27.286  10.542   6.123  1.00  0.00    +0.034 A 
ATOM     11  C   UNL     1     -28.524  10.131   6.615  1.00  0.00    +0.034 A 
ATOM     12  C   UNL     1     -29.636  10.976   6.505  1.00  0.00    +0.013 A 
ATOM     13  C   UNL     1     -29.503  12.229   5.903  1.00  0.00    +0.001 A 
ATOM     14  C   UNL     1     -28.265  12.639   5.411  1.00  0.00    +0.001 A 
ATOM     15  C   UNL     1     -27.156  11.799   5.520  1.00  0.00    +0.013 A 
ATOM     16  C   UNL     1     -28.673   8.808   7.253  1.00  0.00    +0.194 C 
ATOM     17  O   UNL     1     -29.761   8.444   7.687  1.00  0.00    -0.289 OA
ENDROOT
TORSDOF 0
ENDMDL
MODEL 2
REMARK VINA RESULT:    -9.697      2.504      5.171
REMARK INTER + INTRA:          -9.697
REMARK INTER:                  -9.697
REMARK INTRA:                   0.000
REMARK UNBOUND:                 0.000
REMARK SMILES O=C1c2ccccc2C(=O)c2cc(Cl)ccc21
REMARK SMILES IDX 14 1 13 2 12 3 11 4 17 5 16 6 15 7 2 8 1 9 3 10 8 11 7 12
REMARK SMILES IDX 6 13 5 14 4 15 9 16 10 17
REMARK H PARENT
ROOT
ATOM      1 Cl   UNL     1     -29.084  12.786   5.419  1.00  0.00    -0.084 Cl
ATOM      2  C   UNL     1     -28.007  11.504   5.809  1.00  0.00    +0.041 A 
ATOM      3  C   UNL     1     -28.490  10.365   6.450  1.00  0.00    +0.033 A 
ATOM      4  C   UNL     1     -27.610   9.321   6.766  1.00  0.00    +0.035 A 
ATOM      5  C   UNL     1     -26.257   9.423   6.440  1.00  0.00    +0.034 A 
ATOM      6  C   UNL     1     -25.779  10.572   5.795  1.00  0.00    +0.014 A 
ATOM      7  C   UNL     1     -26.656  11.612   5.480  1.00  0.00    +0.021 A 
ATOM      8  C   UNL     1     -25.323   8.328   6.769  1.00  0.00    +0.194 C 
ATOM      9  O   UNL     1     -24.135   8.421   6.481  1.00  0.00    -0.289 OA
ATOM     10  C   UNL     1     -25.838   7.123   7.450  1.00  0.00    +0.034 A 
ATOM     11  C   UNL     1     -27.189   7.021   7.775  1.00  0.00    +0.034 A 
ATOM     12  C   UNL     1     -27.668   5.873   8.420  1.00  0.00    +0.013 A 
ATOM     13  C   UNL     1     -26.792   4.832   8.735  1.00  0.00    +0.001 A 
ATOM     14  C   UNL     1     -25.440   4.935   8.409  1.00  0.00    +0.001 A 
ATOM     15  C   UNL     1     -24.961   6.078   7.766  1.00  0.00    +0.013 A 
ATOM     16  C   UNL     1     -28.123   8.116   7.446  1.00  0.00    +0.194 C 
ATOM     17  O   UNL     1     -29.312   8.028   7.731  1.00  0.00    -0.289 OA
ENDROOT
TORSDOF 0
ENDMDL
MODEL 3
REMARK VINA RESULT:    -9.434      2.532      4.138
REMARK INTER + INTRA:          -9.434
REMARK INTER:                  -9.434
REMARK INTRA:                   0.000
REMARK UNBOUND:                 0.000
REMARK SMILES O=C1c2ccccc2C(=O)c2cc(Cl)ccc21
REMARK SMILES IDX 14 1 13 2 12 3 11 4 17 5 16 6 15 7 2 8 1 9 3 10 8 11 7 12
REMARK SMILES IDX 6 13 5 14 4 15 9 16 10 17
REMARK H PARENT
ROOT
ATOM      1 Cl   UNL     1     -31.875   5.656   8.665  1.00  0.00    -0.084 Cl
ATOM      2  C   UNL     1     -31.438   7.182   8.005  1.00  0.00    +0.041 A 
ATOM      3  C   UNL     1     -30.106   7.443   7.685  1.00  0.00    +0.033 A 
ATOM      4  C   UNL     1     -29.753   8.688   7.147  1.00  0.00    +0.035 A 
ATOM      5  C   UNL     1     -30.730   9.661   6.934  1.00  0.00    +0.034 A 
ATOM      6  C   UNL     1     -32.067   9.392   7.258  1.00  0.00    +0.014 A 
ATOM      7  C   UNL     1     -32.419   8.150   7.795  1.00  0.00    +0.021 A 
ATOM      8  C   UNL     1     -30.367  10.975   6.368  1.00  0.00    +0.194 C 
ATOM      9  O   UNL     1     -31.228  11.827   6.181  1.00  0.00    -0.289 OA
ATOM     10  C   UNL     1     -28.955  11.248   6.030  1.00  0.00    +0.034 A 
ATOM     11  C   UNL     1     -27.979  10.276   6.243  1.00  0.00    +0.034 A 
ATOM     12  C   UNL     1     -26.643  10.544   5.919  1.00  0.00    +0.013 A 
ATOM     13  C   UNL     1     -26.290  11.784   5.382  1.00  0.00    +0.001 A 
ATOM     14  C   UNL     1     -27.267  12.756   5.170  1.00  0.00    +0.001 A 
ATOM     15  C   UNL     1     -28.599  12.491   5.492  1.00  0.00    +0.013 A 
ATOM     16  C   UNL     1     -28.343   8.961   6.809  1.00  0.00    +0.194 C 
ATOM     17  O   UNL     1     -27.486   8.105   6.997  1.00  0.00    -0.289 OA
ENDROOT
TORSDOF 0
ENDMDL
MODEL 4
REMARK VINA RESULT:    -8.777      2.464      4.881
REMARK INTER + INTRA:          -8.777
REMARK INTER:                  -8.777
REMARK INTRA:                   0.000
REMARK UNBOUND:                 0.000
REMARK SMILES O=C1c2ccccc2C(=O)c2cc(Cl)ccc21
REMARK SMILES IDX 14 1 13 2 12 3 11 4 17 5 16 6 15 7 2 8 1 9 3 10 8 11 7 12
REMARK SMILES IDX 6 13 5 14 4 15 9 16 10 17
REMARK H PARENT
ROOT
ATOM      1 Cl   UNL     1     -32.901  10.721   7.847  1.00  0.00    -0.084 Cl
ATOM      2  C   UNL     1     -31.249  10.573   7.393  1.00  0.00    +0.041 A 
ATOM      3  C   UNL     1     -30.549   9.406   7.697  1.00  0.00    +0.033 A 
ATOM      4  C   UNL     1     -29.203   9.289   7.326  1.00  0.00    +0.035 A 
ATOM      5  C   UNL     1     -28.568  10.334   6.654  1.00  0.00    +0.034 A 
ATOM      6  C   UNL     1     -29.278  11.504   6.351  1.00  0.00    +0.014 A 
ATOM      7  C   UNL     1     -30.620  11.621   6.722  1.00  0.00    +0.021 A 
ATOM      8  C   UNL     1     -27.150  10.218   6.259  1.00  0.00    +0.194 C 
ATOM      9  O   UNL     1     -26.595  11.139   5.669  1.00  0.00    -0.289 OA
ATOM     10  C   UNL     1     -26.411   8.982   6.584  1.00  0.00    +0.034 A 
ATOM     11  C   UNL     1     -27.045   7.937   7.254  1.00  0.00    +0.034 A 
ATOM     12  C   UNL     1     -26.336   6.768   7.557  1.00  0.00    +0.013 A 
ATOM     13  C   UNL     1     -24.995   6.649   7.187  1.00  0.00    +0.001 A 
ATOM     14  C   UNL     1     -24.361   7.695   6.517  1.00  0.00    +0.001 A 
ATOM     15  C   UNL     1     -25.066   8.861   6.213  1.00  0.00    +0.013 A 
ATOM     16  C   UNL     1     -28.463   8.053   7.649  1.00  0.00    +0.194 C 
ATOM     17  O   UNL     1     -29.023   7.136   8.238  1.00  0.00    -0.289 OA
ENDROOT
TORSDOF 0
ENDMDL
MODEL 5
REMARK VINA RESULT:    -8.410      3.226      5.176
REMARK INTER + INTRA:          -8.410
REMARK INTER:                  -8.410
REMARK INTRA:                   0.000
REMARK UNBOUND:                 0.000
REMARK SMILES O=C1c2ccccc2C(=O)c2cc(Cl)ccc21
REMARK SMILES IDX 14 1 13 2 12 3 11 4 17 5 16 6 15 7 2 8 1 9 3 10 8 11 7 12
REMARK SMILES IDX 6 13 5 14 4 15 9 16 10 17
REMARK H PARENT
ROOT
ATOM      1 Cl   UNL     1     -27.478  13.256   5.047  1.00  0.00    -0.084 Cl
ATOM      2  C   UNL     1     -27.711  11.725   5.794  1.00  0.00    +0.041 A 
ATOM      3  C   UNL     1     -29.004  11.258   6.026  1.00  0.00    +0.033 A 
ATOM      4  C   UNL     1     -29.191  10.009   6.635  1.00  0.00    +0.035 A 
ATOM      5  C   UNL     1     -28.089   9.239   7.006  1.00  0.00    +0.034 A 
ATOM      6  C   UNL     1     -26.792   9.715   6.769  1.00  0.00    +0.014 A 
ATOM      7  C   UNL     1     -26.605  10.960   6.162  1.00  0.00    +0.021 A 
ATOM      8  C   UNL     1     -28.277   7.923   7.647  1.00  0.00    +0.194 C 
ATOM      9  O   UNL     1     -27.306   7.248   7.972  1.00  0.00    -0.289 OA
ATOM     10  C   UNL     1     -29.648   7.431   7.892  1.00  0.00    +0.034 A 
ATOM     11  C   UNL     1     -30.749   8.200   7.521  1.00  0.00    +0.034 A 
ATOM     12  C   UNL     1     -32.046   7.725   7.757  1.00  0.00    +0.013 A 
ATOM     13  C   UNL     1     -32.234   6.481   8.363  1.00  0.00    +0.001 A 
ATOM     14  C   UNL     1     -31.131   5.712   8.735  1.00  0.00    +0.001 A 
ATOM     15  C   UNL     1     -29.838   6.184   8.500  1.00  0.00    +0.013 A 
ATOM     16  C   UNL     1     -30.561   9.517   6.879  1.00  0.00    +0.194 C 
ATOM     17  O   UNL     1     -31.528  10.195   6.552  1.00  0.00    -0.289 OA
ENDROOT
TORSDOF 0
ENDMDL
MODEL 6
REMARK VINA RESULT:    -7.900      8.080      9.774
REMARK INTER + INTRA:          -7.900
REMARK INTER:                  -7.900
REMARK INTRA:                   0.000
REMARK UNBOUND:                 0.000
REMARK SMILES O=C1c2ccccc2C(=O)c2cc(Cl)ccc21
REMARK SMILES IDX 14 1 13 2 12 3 11 4 17 5 16 6 15 7 2 8 1 9 3 10 8 11 7 12
REMARK SMILES IDX 6 13 5 14 4 15 9 16 10 17
REMARK H PARENT
ROOT
ATOM      1 Cl   UNL     1     -31.193  -1.049   9.943  1.00  0.00    -0.084 Cl
ATOM      2  C   UNL     1     -29.855  -0.002  10.201  1.00  0.00    +0.041 A 
ATOM      3  C   UNL     1     -28.562  -0.522  10.225  1.00  0.00    +0.033 A 
ATOM      4  C   UNL     1     -27.474   0.335  10.436  1.00  0.00    +0.035 A 
ATOM      5  C   UNL     1     -27.684   1.702  10.620  1.00  0.00    +0.034 A 
ATOM      6  C   UNL     1     -28.987   2.218  10.595  1.00  0.00    +0.014 A 
ATOM      7  C   UNL     1     -30.072   1.363  10.385  1.00  0.00    +0.021 A 
ATOM      8  C   UNL     1     -26.542   2.611  10.843  1.00  0.00    +0.194 C 
ATOM      9  O   UNL     1     -26.731   3.812  11.004  1.00  0.00    -0.289 OA
ATOM     10  C   UNL     1     -25.174   2.056  10.868  1.00  0.00    +0.034 A 
ATOM     11  C   UNL     1     -24.964   0.691  10.683  1.00  0.00    +0.034 A 
ATOM     12  C   UNL     1     -23.662   0.174  10.709  1.00  0.00    +0.013 A 
ATOM     13  C   UNL     1     -22.576   1.027  10.918  1.00  0.00    +0.001 A 
ATOM     14  C   UNL     1     -22.787   2.393  11.103  1.00  0.00    +0.001 A 
ATOM     15  C   UNL     1     -24.084   2.910  11.078  1.00  0.00    +0.013 A 
ATOM     16  C   UNL     1     -26.106  -0.219  10.461  1.00  0.00    +0.194 C 
ATOM     17  O   UNL     1     -25.923  -1.419  10.298  1.00  0.00    -0.289 OA
ENDROOT
TORSDOF 0
ENDMDL
MODEL 7
REMARK VINA RESULT:    -7.771      9.052     10.592
REMARK INTER + INTRA:          -7.771
REMARK INTER:                  -7.771
REMARK INTRA:                   0.000
REMARK UNBOUND:                 0.000
REMARK SMILES O=C1c2ccccc2C(=O)c2cc(Cl)ccc21
REMARK SMILES IDX 14 1 13 2 12 3 11 4 17 5 16 6 15 7 2 8 1 9 3 10 8 11 7 12
REMARK SMILES IDX 6 13 5 14 4 15 9 16 10 17
REMARK H PARENT
ROOT
ATOM      1 Cl   UNL     1     -32.245  -0.568  10.963  1.00  0.00    -0.084 Cl
ATOM      2  C   UNL     1     -33.026   0.895  10.510  1.00  0.00    +0.041 A 
ATOM      3  C   UNL     1     -34.397   1.040  10.717  1.00  0.00    +0.033 A 
ATOM      4  C   UNL     1     -35.031   2.234  10.347  1.00  0.00    +0.035 A 
ATOM      5  C   UNL     1     -34.293   3.271   9.776  1.00  0.00    +0.034 A 
ATOM      6  C   UNL     1     -32.915   3.118   9.571  1.00  0.00    +0.014 A 
ATOM      7  C   UNL     1     -32.283   1.927   9.940  1.00  0.00    +0.021 A 
ATOM      8  C   UNL     1     -34.953   4.532   9.383  1.00  0.00    +0.194 C 
ATOM      9  O   UNL     1     -34.301   5.441   8.882  1.00  0.00    -0.289 OA
ATOM     10  C   UNL     1     -36.406   4.683   9.602  1.00  0.00    +0.034 A 
ATOM     11  C   UNL     1     -37.143   3.647  10.174  1.00  0.00    +0.034 A 
ATOM     12  C   UNL     1     -38.520   3.799  10.378  1.00  0.00    +0.013 A 
ATOM     13  C   UNL     1     -39.153   4.989  10.011  1.00  0.00    +0.001 A 
ATOM     14  C   UNL     1     -38.415   6.024   9.439  1.00  0.00    +0.001 A 
ATOM     15  C   UNL     1     -37.042   5.874   9.234  1.00  0.00    +0.013 A 
ATOM     16  C   UNL     1     -36.483   2.386  10.566  1.00  0.00    +0.194 C 
ATOM     17  O   UNL     1     -37.129   1.474  11.068  1.00  0.00    -0.289 OA
ENDROOT
TORSDOF 0
ENDMDL
MODEL 8
REMARK VINA RESULT:    -7.755      7.907      9.752
REMARK INTER + INTRA:          -7.755
REMARK INTER:                  -7.755
REMARK INTRA:                   0.000
REMARK UNBOUND:                 0.000
REMARK SMILES O=C1c2ccccc2C(=O)c2cc(Cl)ccc21
REMARK SMILES IDX 14 1 13 2 12 3 11 4 17 5 16 6 15 7 2 8 1 9 3 10 8 11 7 12
REMARK SMILES IDX 6 13 5 14 4 15 9 16 10 17
REMARK H PARENT
ROOT
ATOM      1 Cl   UNL     1     -31.846   1.972  10.120  1.00  0.00    -0.084 Cl
ATOM      2  C   UNL     1     -30.253   1.347  10.279  1.00  0.00    +0.041 A 
ATOM      3  C   UNL     1     -29.176   2.221  10.415  1.00  0.00    +0.033 A 
ATOM      4  C   UNL     1     -27.878   1.708  10.544  1.00  0.00    +0.035 A 
ATOM      5  C   UNL     1     -27.667   0.329  10.538  1.00  0.00    +0.034 A 
ATOM      6  C   UNL     1     -28.755  -0.544  10.401  1.00  0.00    +0.014 A 
ATOM      7  C   UNL     1     -30.048  -0.032  10.272  1.00  0.00    +0.021 A 
ATOM      8  C   UNL     1     -26.303  -0.220  10.674  1.00  0.00    +0.194 C 
ATOM      9  O   UNL     1     -26.121  -1.432  10.668  1.00  0.00    -0.289 OA
ATOM     10  C   UNL     1     -25.164   0.709  10.817  1.00  0.00    +0.034 A 
ATOM     11  C   UNL     1     -25.375   2.087  10.824  1.00  0.00    +0.034 A 
ATOM     12  C   UNL     1     -24.288   2.960  10.960  1.00  0.00    +0.013 A 
ATOM     13  C   UNL     1     -22.995   2.450  11.090  1.00  0.00    +0.001 A 
ATOM     14  C   UNL     1     -22.784   1.072  11.083  1.00  0.00    +0.001 A 
ATOM     15  C   UNL     1     -23.866   0.200  10.947  1.00  0.00    +0.013 A 
ATOM     16  C   UNL     1     -26.739   2.636  10.688  1.00  0.00    +0.194 C 
ATOM     17  O   UNL     1     -26.927   3.847  10.694  1.00  0.00    -0.289 OA
ENDROOT
TORSDOF 0
ENDMDL
MODEL 9
REMARK VINA RESULT:    -7.689      5.571      6.938
REMARK INTER + INTRA:          -7.689
REMARK INTER:                  -7.689
REMARK INTRA:                   0.000
REMARK UNBOUND:                 0.000
REMARK SMILES O=C1c2ccccc2C(=O)c2cc(Cl)ccc21
REMARK SMILES IDX 14 1 13 2 12 3 11 4 17 5 16 6 15 7 2 8 1 9 3 10 8 11 7 12
REMARK SMILES IDX 6 13 5 14 4 15 9 16 10 17
REMARK H PARENT
ROOT
ATOM      1 Cl   UNL     1     -36.372   2.504   9.713  1.00  0.00    -0.084 Cl
ATOM      2  C   UNL     1     -34.911   3.363   9.429  1.00  0.00    +0.041 A 
ATOM      3  C   UNL     1     -34.938   4.559   8.714  1.00  0.00    +0.033 A 
ATOM      4  C   UNL     1     -33.745   5.257   8.483  1.00  0.00    +0.035 A 
ATOM      5  C   UNL     1     -32.536   4.756   8.968  1.00  0.00    +0.034 A 
ATOM      6  C   UNL     1     -32.516   3.553   9.687  1.00  0.00    +0.014 A 
ATOM      7  C   UNL     1     -33.706   2.857   9.916  1.00  0.00    +0.021 A 
ATOM      8  C   UNL     1     -31.275   5.486   8.730  1.00  0.00    +0.194 C 
ATOM      9  O   UNL     1     -30.214   5.043   9.158  1.00  0.00    -0.289 OA
ATOM     10  C   UNL     1     -31.307   6.752   7.972  1.00  0.00    +0.034 A 
ATOM     11  C   UNL     1     -32.515   7.252   7.488  1.00  0.00    +0.034 A 
ATOM     12  C   UNL     1     -32.535   8.455   6.770  1.00  0.00    +0.013 A 
ATOM     13  C   UNL     1     -31.347   9.152   6.540  1.00  0.00    +0.001 A 
ATOM     14  C   UNL     1     -30.139   8.650   7.025  1.00  0.00    +0.001 A 
ATOM     15  C   UNL     1     -30.117   7.452   7.741  1.00  0.00    +0.013 A 
ATOM     16  C   UNL     1     -33.776   6.523   7.726  1.00  0.00    +0.194 C 
ATOM     17  O   UNL     1     -34.839   6.961   7.301  1.00  0.00    -0.289 OA
ENDROOT
TORSDOF 0
ENDMDL
