MODEL 1
REMARK VINA RESULT:   -10.896      0.000      0.000
REMARK INTER + INTRA:         -11.367
REMARK INTER:                 -11.533
REMARK INTRA:                   0.166
REMARK UNBOUND:                 0.166
REMARK SMILES Cc1ccc2c(c1[N+](=O)[O-])C(=O)c1ccccc1C2=O
REMARK SMILES IDX 1 1 2 2 7 3 6 4 5 5 4 6 3 7 19 8 20 9 18 10 17 11 16 12
REMARK SMILES IDX 15 13 14 14 13 15 11 16 12 17 8 18 9 19 10 20
REMARK H PARENT
ROOT
ATOM      1  C   UNL     1     -28.514  13.285   5.102  1.00  0.00    +0.052 C 
ATOM      2  C   UNL     1     -28.528  11.922   5.742  1.00  0.00    +0.028 A 
ATOM      3  C   UNL     1     -27.386  11.089   5.779  1.00  0.00    +0.284 A 
ATOM      4  C   UNL     1     -27.403   9.817   6.376  1.00  0.00    +0.112 A 
ATOM      5  C   UNL     1     -28.599   9.377   6.948  1.00  0.00    +0.041 A 
ATOM      6  C   UNL     1     -29.744  10.189   6.922  1.00  0.00    +0.014 A 
ATOM      7  C   UNL     1     -29.709  11.449   6.324  1.00  0.00    +0.011 A 
ATOM      8  C   UNL     1     -28.697   8.051   7.595  1.00  0.00    +0.194 C 
ATOM      9  O   UNL     1     -29.755   7.682   8.092  1.00  0.00    -0.289 OA
ATOM     10  C   UNL     1     -27.513   7.179   7.637  1.00  0.00    +0.034 A 
ATOM     11  C   UNL     1     -27.594   5.921   8.249  1.00  0.00    +0.013 A 
ATOM     12  C   UNL     1     -26.473   5.091   8.291  1.00  0.00    +0.001 A 
ATOM     13  C   UNL     1     -25.271   5.515   7.725  1.00  0.00    +0.001 A 
ATOM     14  C   UNL     1     -25.190   6.769   7.115  1.00  0.00    +0.013 A 
ATOM     15  C   UNL     1     -26.314   7.604   7.072  1.00  0.00    +0.034 A 
ATOM     16  C   UNL     1     -26.217   8.928   6.426  1.00  0.00    +0.201 C 
ATOM     17  O   UNL     1     -25.152   9.274   5.938  1.00  0.00    -0.288 OA
ENDROOT
BRANCH   3  18
ATOM     18  N   UNL     1     -26.170  11.593   5.170  1.00  0.00    +0.063 N 
ATOM     19  O   UNL     1     -25.388  12.199   5.915  1.00  0.00    -0.258 OA
ATOM     20  O   UNL     1     -26.069  11.462   3.943  1.00  0.00    -0.258 OA
ENDBRANCH   3  18
TORSDOF 1
ENDMDL
MODEL 2
REMARK VINA RESULT:    -9.754      1.715      5.207
REMARK INTER + INTRA:         -10.159
REMARK INTER:                 -10.304
REMARK INTRA:                   0.146
REMARK UNBOUND:                 0.166
REMARK SMILES Cc1ccc2c(c1[N+](=O)[O-])C(=O)c1ccccc1C2=O
REMARK SMILES IDX 1 1 2 2 7 3 6 4 5 5 4 6 3 7 19 8 20 9 18 10 17 11 16 12
REMARK SMILES IDX 15 13 14 14 13 15 11 16 12 17 8 18 9 19 10 20
REMARK H PARENT
ROOT
ATOM      1  C   UNL     1     -26.353   4.938   8.637  1.00  0.00    +0.052 C 
ATOM      2  C   UNL     1     -27.092   6.175   8.201  1.00  0.00    +0.028 A 
ATOM      3  C   UNL     1     -26.445   7.261   7.565  1.00  0.00    +0.284 A 
ATOM      4  C   UNL     1     -27.139   8.415   7.159  1.00  0.00    +0.112 A 
ATOM      5  C   UNL     1     -28.513   8.473   7.402  1.00  0.00    +0.041 A 
ATOM      6  C   UNL     1     -29.172   7.405   8.032  1.00  0.00    +0.014 A 
ATOM      7  C   UNL     1     -28.469   6.268   8.428  1.00  0.00    +0.011 A 
ATOM      8  C   UNL     1     -29.312   9.652   7.005  1.00  0.00    +0.194 C 
ATOM      9  O   UNL     1     -30.517   9.686   7.226  1.00  0.00    -0.289 OA
ATOM     10  C   UNL     1     -28.646  10.785   6.343  1.00  0.00    +0.034 A 
ATOM     11  C   UNL     1     -29.394  11.907   5.962  1.00  0.00    +0.013 A 
ATOM     12  C   UNL     1     -28.766  12.984   5.334  1.00  0.00    +0.001 A 
ATOM     13  C   UNL     1     -27.395  12.942   5.084  1.00  0.00    +0.001 A 
ATOM     14  C   UNL     1     -26.650  11.823   5.464  1.00  0.00    +0.013 A 
ATOM     15  C   UNL     1     -27.278  10.741   6.095  1.00  0.00    +0.034 A 
ATOM     16  C   UNL     1     -26.481   9.563   6.491  1.00  0.00    +0.201 C 
ATOM     17  O   UNL     1     -25.281   9.553   6.261  1.00  0.00    -0.288 OA
ENDROOT
BRANCH   3  18
ATOM     18  N   UNL     1     -25.018   7.150   7.337  1.00  0.00    +0.063 N 
ATOM     19  O   UNL     1     -24.664   6.546   6.315  1.00  0.00    -0.258 OA
ATOM     20  O   UNL     1     -24.279   7.578   8.234  1.00  0.00    -0.258 OA
ENDBRANCH   3  18
TORSDOF 1
ENDMDL
MODEL 3
REMARK VINA RESULT:    -8.705      2.145      3.111
REMARK INTER + INTRA:          -9.049
REMARK INTER:                  -9.310
REMARK INTRA:                   0.262
REMARK UNBOUND:                 0.166
REMARK SMILES Cc1ccc2c(c1[N+](=O)[O-])C(=O)c1ccccc1C2=O
REMARK SMILES IDX 1 1 2 2 7 3 6 4 5 5 4 6 3 7 19 8 20 9 18 10 17 11 16 12
REMARK SMILES IDX 15 13 14 14 13 15 11 16 12 17 8 18 9 19 10 20
REMARK H PARENT
ROOT
ATOM      1  C   UNL     1     -27.672  12.607   5.385  1.00  0.00    +0.052 C 
ATOM      2  C   UNL     1     -28.655  11.610   5.937  1.00  0.00    +0.028 A 
ATOM      3  C   UNL     1     -28.261  10.335   6.406  1.00  0.00    +0.284 A 
ATOM      4  C   UNL     1     -29.182   9.406   6.921  1.00  0.00    +0.112 A 
ATOM      5  C   UNL     1     -30.529   9.773   6.963  1.00  0.00    +0.041 A 
ATOM      6  C   UNL     1     -30.940  11.034   6.503  1.00  0.00    +0.014 A 
ATOM      7  C   UNL     1     -30.013  11.944   5.995  1.00  0.00    +0.011 A 
ATOM      8  C   UNL     1     -31.558   8.852   7.490  1.00  0.00    +0.194 C 
ATOM      9  O   UNL     1     -32.736   9.191   7.520  1.00  0.00    -0.289 OA
ATOM     10  C   UNL     1     -31.155   7.524   7.979  1.00  0.00    +0.034 A 
ATOM     11  C   UNL     1     -32.122   6.643   8.481  1.00  0.00    +0.013 A 
ATOM     12  C   UNL     1     -31.744   5.382   8.946  1.00  0.00    +0.001 A 
ATOM     13  C   UNL     1     -30.404   5.000   8.911  1.00  0.00    +0.001 A 
ATOM     14  C   UNL     1     -29.440   5.878   8.410  1.00  0.00    +0.013 A 
ATOM     15  C   UNL     1     -29.817   7.144   7.944  1.00  0.00    +0.034 A 
ATOM     16  C   UNL     1     -28.790   8.065   7.417  1.00  0.00    +0.201 C 
ATOM     17  O   UNL     1     -27.623   7.705   7.397  1.00  0.00    -0.288 OA
ENDROOT
BRANCH   3  18
ATOM     18  N   UNL     1     -26.851  10.004   6.339  1.00  0.00    +0.063 N 
ATOM     19  O   UNL     1     -26.193  10.169   7.376  1.00  0.00    -0.258 OA
ATOM     20  O   UNL     1     -26.409   9.683   5.228  1.00  0.00    -0.258 OA
ENDBRANCH   3  18
TORSDOF 1
ENDMDL
MODEL 4
REMARK VINA RESULT:    -8.317      8.430     11.251
REMARK INTER + INTRA:          -8.637
REMARK INTER:                  -8.771
REMARK INTRA:                   0.134
REMARK UNBOUND:                 0.166
REMARK SMILES Cc1ccc2c(c1[N+](=O)[O-])C(=O)c1ccccc1C2=O
REMARK SMILES IDX 1 1 2 2 7 3 6 4 5 5 4 6 3 7 19 8 20 9 18 10 17 11 16 12
REMARK SMILES IDX 15 13 14 14 13 15 11 16 12 17 8 18 9 19 10 20
REMARK H PARENT
ROOT
ATOM      1  C   UNL     1     -30.629   2.466   9.931  1.00  0.00    +0.052 C 
ATOM      2  C   UNL     1     -31.894   3.241   9.672  1.00  0.00    +0.028 A 
ATOM      3  C   UNL     1     -33.159   2.806  10.131  1.00  0.00    +0.284 A 
ATOM      4  C   UNL     1     -34.337   3.532   9.887  1.00  0.00    +0.112 A 
ATOM      5  C   UNL     1     -34.236   4.723   9.163  1.00  0.00    +0.041 A 
ATOM      6  C   UNL     1     -32.989   5.172   8.700  1.00  0.00    +0.014 A 
ATOM      7  C   UNL     1     -31.830   4.439   8.951  1.00  0.00    +0.011 A 
ATOM      8  C   UNL     1     -35.429   5.543   8.865  1.00  0.00    +0.194 C 
ATOM      9  O   UNL     1     -35.321   6.585   8.230  1.00  0.00    -0.289 OA
ATOM     10  C   UNL     1     -36.748   5.096   9.340  1.00  0.00    +0.034 A 
ATOM     11  C   UNL     1     -37.886   5.865   9.064  1.00  0.00    +0.013 A 
ATOM     12  C   UNL     1     -39.139   5.445   9.512  1.00  0.00    +0.001 A 
ATOM     13  C   UNL     1     -39.259   4.259  10.235  1.00  0.00    +0.001 A 
ATOM     14  C   UNL     1     -38.124   3.491  10.510  1.00  0.00    +0.013 A 
ATOM     15  C   UNL     1     -36.865   3.912  10.062  1.00  0.00    +0.034 A 
ATOM     16  C   UNL     1     -35.672   3.094  10.358  1.00  0.00    +0.201 C 
ATOM     17  O   UNL     1     -35.806   2.058  10.994  1.00  0.00    -0.288 OA
ENDROOT
BRANCH   3  18
ATOM     18  N   UNL     1     -33.209   1.563  10.876  1.00  0.00    +0.063 N 
ATOM     19  O   UNL     1     -33.037   1.643  12.100  1.00  0.00    -0.258 OA
ATOM     20  O   UNL     1     -33.318   0.523  10.213  1.00  0.00    -0.258 OA
ENDBRANCH   3  18
TORSDOF 1
ENDMDL
