MODEL 1
REMARK VINA RESULT:    -9.940      0.000      0.000
REMARK INTER + INTRA:          -9.940
REMARK INTER:                  -9.940
REMARK INTRA:                   0.000
REMARK UNBOUND:                 0.000
REMARK SMILES O=C1C2=C(CCCC2)C(=O)c2ccccc21
REMARK SMILES IDX 1 1 2 2 3 3 4 4 5 5 6 6 7 7 8 8 9 9 10 10 11 11 16 12 15 13
REMARK SMILES IDX 14 14 13 15 12 16
REMARK H PARENT
ROOT
ATOM      1  O   UNL     1     -29.687   8.341   7.722  1.00  0.00    -0.289 OA
ATOM      2  C   UNL     1     -28.627   8.753   7.265  1.00  0.00    +0.190 C 
ATOM      3  C   UNL     1     -27.385   7.939   7.342  1.00  0.00    +0.007 C 
ATOM      4  C   UNL     1     -26.218   8.398   6.859  1.00  0.00    +0.007 C 
ATOM      5  C   UNL     1     -24.933   7.612   6.947  1.00  0.00    +0.040 C 
ATOM      6  C   UNL     1     -25.014   6.426   7.909  1.00  0.00    +0.005 C 
ATOM      7  C   UNL     1     -26.324   5.667   7.732  1.00  0.00    +0.005 C 
ATOM      8  C   UNL     1     -27.525   6.581   7.981  1.00  0.00    +0.040 C 
ATOM      9  C   UNL     1     -26.122   9.730   6.206  1.00  0.00    +0.190 C 
ATOM     10  O   UNL     1     -25.060  10.140   5.750  1.00  0.00    -0.289 OA
ATOM     11  C   UNL     1     -27.344  10.550   6.116  1.00  0.00    +0.033 A 
ATOM     12  C   UNL     1     -28.550  10.079   6.627  1.00  0.00    +0.033 A 
ATOM     13  C   UNL     1     -29.704  10.871   6.534  1.00  0.00    +0.013 A 
ATOM     14  C   UNL     1     -29.644  12.128   5.931  1.00  0.00    +0.001 A 
ATOM     15  C   UNL     1     -28.436  12.599   5.420  1.00  0.00    +0.001 A 
ATOM     16  C   UNL     1     -27.286  11.813   5.511  1.00  0.00    +0.013 A 
ENDROOT
TORSDOF 0
ENDMDL
MODEL 2
REMARK VINA RESULT:    -9.933      0.057      2.773
REMARK INTER + INTRA:          -9.933
REMARK INTER:                  -9.933
REMARK INTRA:                   0.000
REMARK UNBOUND:                 0.000
REMARK SMILES O=C1C2=C(CCCC2)C(=O)c2ccccc21
REMARK SMILES IDX 1 1 2 2 3 3 4 4 5 5 6 6 7 7 8 8 9 9 10 10 11 11 16 12 15 13
REMARK SMILES IDX 14 14 13 15 12 16
REMARK H PARENT
ROOT
ATOM      1  O   UNL     1     -25.029  10.170   5.813  1.00  0.00    -0.289 OA
ATOM      2  C   UNL     1     -26.091   9.739   6.247  1.00  0.00    +0.190 C 
ATOM      3  C   UNL     1     -26.176   8.399   6.887  1.00  0.00    +0.007 C 
ATOM      4  C   UNL     1     -27.343   7.917   7.347  1.00  0.00    +0.007 C 
ATOM      5  C   UNL     1     -27.472   6.551   7.973  1.00  0.00    +0.040 C 
ATOM      6  C   UNL     1     -26.251   5.660   7.738  1.00  0.00    +0.005 C 
ATOM      7  C   UNL     1     -24.957   6.439   7.944  1.00  0.00    +0.005 C 
ATOM      8  C   UNL     1     -24.881   7.635   6.992  1.00  0.00    +0.040 C 
ATOM      9  C   UNL     1     -28.597   8.711   7.255  1.00  0.00    +0.190 C 
ATOM     10  O   UNL     1     -29.658   8.277   7.690  1.00  0.00    -0.289 OA
ATOM     11  C   UNL     1     -28.532  10.044   6.628  1.00  0.00    +0.033 A 
ATOM     12  C   UNL     1     -27.325  10.538   6.142  1.00  0.00    +0.033 A 
ATOM     13  C   UNL     1     -27.279  11.807   5.548  1.00  0.00    +0.013 A 
ATOM     14  C   UNL     1     -28.440  12.575   5.443  1.00  0.00    +0.001 A 
ATOM     15  C   UNL     1     -29.648  12.079   5.930  1.00  0.00    +0.001 A 
ATOM     16  C   UNL     1     -29.697  10.816   6.522  1.00  0.00    +0.013 A 
ENDROOT
TORSDOF 0
ENDMDL
MODEL 3
REMARK VINA RESULT:    -9.850      0.251      4.689
REMARK INTER + INTRA:          -9.850
REMARK INTER:                  -9.850
REMARK INTRA:                   0.000
REMARK UNBOUND:                 0.000
REMARK SMILES O=C1C2=C(CCCC2)C(=O)c2ccccc21
REMARK SMILES IDX 1 1 2 2 3 3 4 4 5 5 6 6 7 7 8 8 9 9 10 10 11 11 16 12 15 13
REMARK SMILES IDX 14 14 13 15 12 16
REMARK H PARENT
ROOT
ATOM      1  O   UNL     1     -29.700   8.129   7.715  1.00  0.00    -0.289 OA
ATOM      2  C   UNL     1     -28.627   8.564   7.315  1.00  0.00    +0.190 C 
ATOM      3  C   UNL     1     -28.521   9.917   6.706  1.00  0.00    +0.007 C 
ATOM      4  C   UNL     1     -27.349  10.388   6.248  1.00  0.00    +0.007 C 
ATOM      5  C   UNL     1     -27.211  11.742   5.597  1.00  0.00    +0.040 C 
ATOM      6  C   UNL     1     -28.553  12.369   5.216  1.00  0.00    +0.005 C 
ATOM      7  C   UNL     1     -29.575  12.196   6.333  1.00  0.00    +0.005 C 
ATOM      8  C   UNL     1     -29.799  10.715   6.646  1.00  0.00    +0.040 C 
ATOM      9  C   UNL     1     -26.101   9.586   6.350  1.00  0.00    +0.190 C 
ATOM     10  O   UNL     1     -25.029  10.023   5.948  1.00  0.00    -0.289 OA
ATOM     11  C   UNL     1     -26.185   8.244   6.956  1.00  0.00    +0.033 A 
ATOM     12  C   UNL     1     -27.401   7.752   7.419  1.00  0.00    +0.033 A 
ATOM     13  C   UNL     1     -27.465   6.474   7.992  1.00  0.00    +0.013 A 
ATOM     14  C   UNL     1     -26.311   5.695   8.098  1.00  0.00    +0.001 A 
ATOM     15  C   UNL     1     -25.093   6.188   7.633  1.00  0.00    +0.001 A 
ATOM     16  C   UNL     1     -25.027   7.460   7.063  1.00  0.00    +0.013 A 
ENDROOT
TORSDOF 0
ENDMDL
MODEL 4
REMARK VINA RESULT:    -7.788      8.452     10.324
REMARK INTER + INTRA:          -7.788
REMARK INTER:                  -7.788
REMARK INTRA:                   0.000
REMARK UNBOUND:                 0.000
REMARK SMILES O=C1C2=C(CCCC2)C(=O)c2ccccc21
REMARK SMILES IDX 1 1 2 2 3 3 4 4 5 5 6 6 7 7 8 8 9 9 10 10 11 11 16 12 15 13
REMARK SMILES IDX 14 14 13 15 12 16
REMARK H PARENT
ROOT
ATOM      1  O   UNL     1     -35.434   6.608   8.065  1.00  0.00    -0.289 OA
ATOM      2  C   UNL     1     -35.405   5.613   8.780  1.00  0.00    +0.190 C 
ATOM      3  C   UNL     1     -34.125   4.920   9.085  1.00  0.00    +0.007 C 
ATOM      4  C   UNL     1     -34.094   3.818   9.854  1.00  0.00    +0.007 C 
ATOM      5  C   UNL     1     -32.818   3.072  10.158  1.00  0.00    +0.040 C 
ATOM      6  C   UNL     1     -31.648   3.483   9.263  1.00  0.00    +0.005 C 
ATOM      7  C   UNL     1     -31.588   4.997   9.102  1.00  0.00    +0.005 C 
ATOM      8  C   UNL     1     -32.884   5.535   8.491  1.00  0.00    +0.040 C 
ATOM      9  C   UNL     1     -35.334   3.255  10.450  1.00  0.00    +0.190 C 
ATOM     10  O   UNL     1     -35.302   2.260  11.165  1.00  0.00    -0.289 OA
ATOM     11  C   UNL     1     -36.612   3.932  10.163  1.00  0.00    +0.033 A 
ATOM     12  C   UNL     1     -36.646   5.067   9.358  1.00  0.00    +0.033 A 
ATOM     13  C   UNL     1     -37.869   5.698   9.093  1.00  0.00    +0.013 A 
ATOM     14  C   UNL     1     -39.052   5.192   9.635  1.00  0.00    +0.001 A 
ATOM     15  C   UNL     1     -39.017   4.055  10.441  1.00  0.00    +0.001 A 
ATOM     16  C   UNL     1     -37.800   3.424  10.706  1.00  0.00    +0.013 A 
ENDROOT
TORSDOF 0
ENDMDL
MODEL 5
REMARK VINA RESULT:    -7.495      6.582      8.354
REMARK INTER + INTRA:          -7.495
REMARK INTER:                  -7.495
REMARK INTRA:                   0.000
REMARK UNBOUND:                 0.000
REMARK SMILES O=C1C2=C(CCCC2)C(=O)c2ccccc21
REMARK SMILES IDX 1 1 2 2 3 3 4 4 5 5 6 6 7 7 8 8 9 9 10 10 11 11 16 12 15 13
REMARK SMILES IDX 14 14 13 15 12 16
REMARK H PARENT
ROOT
ATOM      1  O   UNL     1     -31.960   5.864   9.822  1.00  0.00    -0.289 OA
ATOM      2  C   UNL     1     -32.694   5.322   9.004  1.00  0.00    +0.190 C 
ATOM      3  C   UNL     1     -33.448   4.086   9.343  1.00  0.00    +0.007 C 
ATOM      4  C   UNL     1     -34.239   3.480   8.441  1.00  0.00    +0.007 C 
ATOM      5  C   UNL     1     -34.993   2.209   8.741  1.00  0.00    +0.040 C 
ATOM      6  C   UNL     1     -34.524   1.514  10.021  1.00  0.00    +0.005 C 
ATOM      7  C   UNL     1     -34.314   2.521  11.145  1.00  0.00    +0.005 C 
ATOM      8  C   UNL     1     -33.275   3.573  10.751  1.00  0.00    +0.040 C 
ATOM      9  C   UNL     1     -34.411   4.030   7.071  1.00  0.00    +0.190 C 
ATOM     10  O   UNL     1     -35.145   3.486   6.254  1.00  0.00    -0.289 OA
ATOM     11  C   UNL     1     -33.675   5.258   6.717  1.00  0.00    +0.033 A 
ATOM     12  C   UNL     1     -32.848   5.879   7.648  1.00  0.00    +0.033 A 
ATOM     13  C   UNL     1     -32.154   7.046   7.297  1.00  0.00    +0.013 A 
ATOM     14  C   UNL     1     -32.292   7.585   6.016  1.00  0.00    +0.001 A 
ATOM     15  C   UNL     1     -33.120   6.962   5.085  1.00  0.00    +0.001 A 
ATOM     16  C   UNL     1     -33.812   5.800   5.432  1.00  0.00    +0.013 A 
ENDROOT
TORSDOF 0
ENDMDL
MODEL 6
REMARK VINA RESULT:    -7.384      8.970     11.706
REMARK INTER + INTRA:          -7.384
REMARK INTER:                  -7.384
REMARK INTRA:                   0.000
REMARK UNBOUND:                 0.000
REMARK SMILES O=C1C2=C(CCCC2)C(=O)c2ccccc21
REMARK SMILES IDX 1 1 2 2 3 3 4 4 5 5 6 6 7 7 8 8 9 9 10 10 11 11 16 12 15 13
REMARK SMILES IDX 14 14 13 15 12 16
REMARK H PARENT
ROOT
ATOM      1  O   UNL     1     -34.064   5.414   8.916  1.00  0.00    -0.289 OA
ATOM      2  C   UNL     1     -34.688   4.483   9.413  1.00  0.00    +0.190 C 
ATOM      3  C   UNL     1     -36.144   4.591   9.691  1.00  0.00    +0.007 C 
ATOM      4  C   UNL     1     -36.825   3.579  10.254  1.00  0.00    +0.007 C 
ATOM      5  C   UNL     1     -38.296   3.665  10.579  1.00  0.00    +0.040 C 
ATOM      6  C   UNL     1     -38.847   5.091  10.516  1.00  0.00    +0.005 C 
ATOM      7  C   UNL     1     -38.325   5.825   9.287  1.00  0.00    +0.005 C 
ATOM      8  C   UNL     1     -36.797   5.892   9.296  1.00  0.00    +0.040 C 
ATOM      9  C   UNL     1     -36.157   2.298  10.604  1.00  0.00    +0.190 C 
ATOM     10  O   UNL     1     -36.782   1.368  11.101  1.00  0.00    -0.289 OA
ATOM     11  C   UNL     1     -34.713   2.170  10.331  1.00  0.00    +0.033 A 
ATOM     12  C   UNL     1     -34.006   3.223   9.758  1.00  0.00    +0.033 A 
ATOM     13  C   UNL     1     -32.634   3.086   9.505  1.00  0.00    +0.013 A 
ATOM     14  C   UNL     1     -31.977   1.897   9.826  1.00  0.00    +0.001 A 
ATOM     15  C   UNL     1     -32.686   0.843  10.399  1.00  0.00    +0.001 A 
ATOM     16  C   UNL     1     -34.052   0.977  10.652  1.00  0.00    +0.013 A 
ENDROOT
TORSDOF 0
ENDMDL
MODEL 7
REMARK VINA RESULT:    -7.341      9.070     10.255
REMARK INTER + INTRA:          -7.341
REMARK INTER:                  -7.341
REMARK INTRA:                   0.000
REMARK UNBOUND:                 0.000
REMARK SMILES O=C1C2=C(CCCC2)C(=O)c2ccccc21
REMARK SMILES IDX 1 1 2 2 3 3 4 4 5 5 6 6 7 7 8 8 9 9 10 10 11 11 16 12 15 13
REMARK SMILES IDX 14 14 13 15 12 16
REMARK H PARENT
ROOT
ATOM      1  O   UNL     1     -25.852  -1.658  10.693  1.00  0.00    -0.289 OA
ATOM      2  C   UNL     1     -25.817  -0.484  11.045  1.00  0.00    +0.190 C 
ATOM      3  C   UNL     1     -24.603   0.349  10.836  1.00  0.00    +0.007 C 
ATOM      4  C   UNL     1     -24.557   1.630  11.238  1.00  0.00    +0.007 C 
ATOM      5  C   UNL     1     -23.332   2.494  11.071  1.00  0.00    +0.040 C 
ATOM      6  C   UNL     1     -22.074   1.699  10.714  1.00  0.00    +0.005 C 
ATOM      7  C   UNL     1     -22.375   0.645   9.656  1.00  0.00    +0.005 C 
ATOM      8  C   UNL     1     -23.448  -0.330  10.144  1.00  0.00    +0.040 C 
ATOM      9  C   UNL     1     -25.725   2.278  11.891  1.00  0.00    +0.190 C 
ATOM     10  O   UNL     1     -25.688   3.452  12.242  1.00  0.00    -0.289 OA
ATOM     11  C   UNL     1     -26.940   1.470  12.102  1.00  0.00    +0.033 A 
ATOM     12  C   UNL     1     -26.984   0.140  11.695  1.00  0.00    +0.033 A 
ATOM     13  C   UNL     1     -28.146  -0.616  11.904  1.00  0.00    +0.013 A 
ATOM     14  C   UNL     1     -29.258  -0.038  12.518  1.00  0.00    +0.001 A 
ATOM     15  C   UNL     1     -29.213   1.295  12.925  1.00  0.00    +0.001 A 
ATOM     16  C   UNL     1     -28.057   2.049  12.719  1.00  0.00    +0.013 A 
ENDROOT
TORSDOF 0
ENDMDL
MODEL 8
REMARK VINA RESULT:    -7.329      9.140     11.019
REMARK INTER + INTRA:          -7.329
REMARK INTER:                  -7.329
REMARK INTRA:                   0.000
REMARK UNBOUND:                 0.000
REMARK SMILES O=C1C2=C(CCCC2)C(=O)c2ccccc21
REMARK SMILES IDX 1 1 2 2 3 3 4 4 5 5 6 6 7 7 8 8 9 9 10 10 11 11 16 12 15 13
REMARK SMILES IDX 14 14 13 15 12 16
REMARK H PARENT
ROOT
ATOM      1  O   UNL     1     -34.275   5.561   8.978  1.00  0.00    -0.289 OA
ATOM      2  C   UNL     1     -34.963   4.667   9.457  1.00  0.00    +0.190 C 
ATOM      3  C   UNL     1     -34.369   3.361   9.846  1.00  0.00    +0.007 C 
ATOM      4  C   UNL     1     -35.125   2.373  10.354  1.00  0.00    +0.007 C 
ATOM      5  C   UNL     1     -34.562   1.025  10.730  1.00  0.00    +0.040 C 
ATOM      6  C   UNL     1     -33.155   0.783  10.181  1.00  0.00    +0.005 C 
ATOM      7  C   UNL     1     -32.278   2.017  10.360  1.00  0.00    +0.005 C 
ATOM      8  C   UNL     1     -32.881   3.226   9.642  1.00  0.00    +0.040 C 
ATOM      9  C   UNL     1     -36.586   2.550  10.570  1.00  0.00    +0.190 C 
ATOM     10  O   UNL     1     -37.271   1.654  11.050  1.00  0.00    -0.289 OA
ATOM     11  C   UNL     1     -37.192   3.841  10.196  1.00  0.00    +0.033 A 
ATOM     12  C   UNL     1     -36.410   4.860   9.660  1.00  0.00    +0.033 A 
ATOM     13  C   UNL     1     -37.002   6.082   9.308  1.00  0.00    +0.013 A 
ATOM     14  C   UNL     1     -38.371   6.277   9.495  1.00  0.00    +0.001 A 
ATOM     15  C   UNL     1     -39.153   5.256  10.032  1.00  0.00    +0.001 A 
ATOM     16  C   UNL     1     -38.567   4.039  10.383  1.00  0.00    +0.013 A 
ENDROOT
TORSDOF 0
ENDMDL
MODEL 9
REMARK VINA RESULT:    -7.316      7.183     10.773
REMARK INTER + INTRA:          -7.316
REMARK INTER:                  -7.316
REMARK INTRA:                   0.000
REMARK UNBOUND:                 0.000
REMARK SMILES O=C1C2=C(CCCC2)C(=O)c2ccccc21
REMARK SMILES IDX 1 1 2 2 3 3 4 4 5 5 6 6 7 7 8 8 9 9 10 10 11 11 16 12 15 13
REMARK SMILES IDX 14 14 13 15 12 16
REMARK H PARENT
ROOT
ATOM      1  O   UNL     1     -26.288  -0.666   9.161  1.00  0.00    -0.289 OA
ATOM      2  C   UNL     1     -25.385  -0.018   9.676  1.00  0.00    +0.190 C 
ATOM      3  C   UNL     1     -25.531   1.439   9.936  1.00  0.00    +0.007 C 
ATOM      4  C   UNL     1     -24.534   2.155  10.482  1.00  0.00    +0.007 C 
ATOM      5  C   UNL     1     -24.636   3.639  10.731  1.00  0.00    +0.040 C 
ATOM      6  C   UNL     1     -25.820   4.292  10.016  1.00  0.00    +0.005 C 
ATOM      7  C   UNL     1     -27.077   3.441  10.148  1.00  0.00    +0.005 C 
ATOM      8  C   UNL     1     -26.858   2.046   9.558  1.00  0.00    +0.040 C 
ATOM      9  C   UNL     1     -23.248   1.518  10.871  1.00  0.00    +0.190 C 
ATOM     10  O   UNL     1     -22.345   2.168  11.385  1.00  0.00    -0.289 OA
ATOM     11  C   UNL     1     -23.086   0.073  10.626  1.00  0.00    +0.033 A 
ATOM     12  C   UNL     1     -24.115  -0.666  10.050  1.00  0.00    +0.033 A 
ATOM     13  C   UNL     1     -23.945  -2.039   9.822  1.00  0.00    +0.013 A 
ATOM     14  C   UNL     1     -22.748  -2.665  10.172  1.00  0.00    +0.001 A 
ATOM     15  C   UNL     1     -21.718  -1.924  10.750  1.00  0.00    +0.001 A 
ATOM     16  C   UNL     1     -21.884  -0.558  10.977  1.00  0.00    +0.013 A 
ENDROOT
TORSDOF 0
ENDMDL
