REMARK SMILES CN(C)C[C@H](O)c1cc2ccccc2c2ccccc12
REMARK SMILES IDX 4 1 2 2 1 3 3 4 5 5 6 6 7 8 20 9 8 10 19 11 15 12 9 13 18 14
REMARK SMILES IDX 16 15 14 16 10 17 17 18 13 19 11 20 12 21
REMARK H PARENT 6 7
ROOT
ATOM      1  C   UNL     1       2.308  -0.236  -0.575  1.00  0.00    +0.120 C 
ENDROOT
BRANCH   1   2
ATOM      2  N   UNL     1       3.778  -0.355  -0.497  1.00  0.00    -0.306 NA
ATOM      3  C   UNL     1       4.427   0.735   0.216  1.00  0.00    +0.105 C 
ATOM      4  C   UNL     1       4.238  -1.663  -0.048  1.00  0.00    +0.105 C 
ENDBRANCH   1   2
BRANCH   1   5
ATOM      5  C   UNL     1       1.500   0.055   0.724  1.00  0.00    +0.159 C 
BRANCH   5   6
ATOM      6  O   UNL     1       1.696  -0.933   1.733  1.00  0.00    -0.387 OA
ATOM      7  H   UNL     1       2.597  -0.803   2.068  1.00  0.00    +0.211 HD
ENDBRANCH   5   6
BRANCH   5   8
ATOM      8  C   UNL     1       0.008   0.226   0.439  1.00  0.00    -0.010 A 
ATOM      9  C   UNL     1      -0.880  -0.839   0.120  1.00  0.00    -0.012 A 
ATOM     10  C   UNL     1      -0.482   1.545   0.462  1.00  0.00    +0.015 A 
ATOM     11  C   UNL     1      -0.464  -2.193   0.082  1.00  0.00    +0.009 A 
ATOM     12  C   UNL     1      -2.246  -0.547  -0.175  1.00  0.00    -0.010 A 
ATOM     13  C   UNL     1      -1.815   1.849   0.183  1.00  0.00    -0.017 A 
ATOM     14  C   UNL     1      -1.329  -3.238  -0.239  1.00  0.00    +0.001 A 
ATOM     15  C   UNL     1      -3.095  -1.639  -0.497  1.00  0.00    +0.009 A 
ATOM     16  C   UNL     1      -2.720   0.814  -0.141  1.00  0.00    -0.011 A 
ATOM     17  C   UNL     1      -2.239   3.190   0.226  1.00  0.00    +0.009 A 
ATOM     18  C   UNL     1      -2.649  -2.960  -0.531  1.00  0.00    +0.001 A 
ATOM     19  C   UNL     1      -4.056   1.212  -0.413  1.00  0.00    +0.009 A 
ATOM     20  C   UNL     1      -3.558   3.539  -0.047  1.00  0.00    +0.001 A 
ATOM     21  C   UNL     1      -4.469   2.547  -0.368  1.00  0.00    +0.001 A 
ENDBRANCH   5   8
ENDBRANCH   1   5
TORSDOF 4
