REMARK SMILES O=C1OC(=O)c2c1ccc1ccccc21
REMARK SMILES IDX 1 1 2 2 3 3 4 4 5 5 6 6 15 7 14 8 13 9 12 10 11 11 10 12
REMARK SMILES IDX 9 13 8 14 7 15
REMARK H PARENT
ROOT
ATOM      1  O   UNL     1      -4.317  -0.505  -0.439  1.00  0.00    -0.246 OA
ATOM      2  C   UNL     1      -3.296   0.134  -0.292  1.00  0.00    +0.346 C 
ATOM      3  O   UNL     1      -3.171   1.479  -0.168  1.00  0.00    -0.386 OA
ATOM      4  C   UNL     1      -1.874   1.865  -0.017  1.00  0.00    +0.347 C 
ATOM      5  O   UNL     1      -1.476   3.004   0.115  1.00  0.00    -0.246 OA
ATOM      6  C   UNL     1      -1.081   0.648  -0.045  1.00  0.00    +0.083 A 
ATOM      7  C   UNL     1       0.300   0.445   0.065  1.00  0.00    -0.003 A 
ATOM      8  C   UNL     1       1.243   1.480   0.238  1.00  0.00    +0.009 A 
ATOM      9  C   UNL     1       2.605   1.195   0.339  1.00  0.00    +0.001 A 
ATOM     10  C   UNL     1       3.048  -0.122   0.270  1.00  0.00    +0.001 A 
ATOM     11  C   UNL     1       2.131  -1.160   0.099  1.00  0.00    +0.009 A 
ATOM     12  C   UNL     1       0.756  -0.898  -0.005  1.00  0.00    -0.017 A 
ATOM     13  C   UNL     1      -0.169  -1.955  -0.179  1.00  0.00    +0.009 A 
ATOM     14  C   UNL     1      -1.539  -1.710  -0.284  1.00  0.00    +0.017 A 
ATOM     15  C   UNL     1      -1.955  -0.395  -0.212  1.00  0.00    +0.075 A 
ENDROOT
TORSDOF 0
