MODEL 1
REMARK VINA RESULT:    -9.545      0.000      0.000
REMARK INTER + INTRA:          -9.545
REMARK INTER:                  -9.545
REMARK INTRA:                   0.000
REMARK UNBOUND:                 0.000
REMARK SMILES O=C1OC(=O)c2c1ccc1ccccc21
REMARK SMILES IDX 1 1 2 2 3 3 4 4 5 5 6 6 15 7 14 8 13 9 12 10 11 11 10 12
REMARK SMILES IDX 9 13 8 14 7 15
REMARK H PARENT
ROOT
ATOM      1  O   UNL     1     -24.732   7.255   7.086  1.00  0.00    -0.246 OA
ATOM      2  C   UNL     1     -25.305   8.274   6.764  1.00  0.00    +0.346 C 
ATOM      3  O   UNL     1     -24.771   9.376   6.180  1.00  0.00    -0.386 OA
ATOM      4  C   UNL     1     -25.703  10.343   5.954  1.00  0.00    +0.347 C 
ATOM      5  O   UNL     1     -25.502  11.427   5.446  1.00  0.00    -0.246 OA
ATOM      6  C   UNL     1     -26.966   9.813   6.438  1.00  0.00    +0.083 A 
ATOM      7  C   UNL     1     -28.251  10.368   6.460  1.00  0.00    -0.003 A 
ATOM      8  C   UNL     1     -28.569  11.653   5.971  1.00  0.00    +0.009 A 
ATOM      9  C   UNL     1     -29.877  12.136   6.029  1.00  0.00    +0.001 A 
ATOM     10  C   UNL     1     -30.886  11.348   6.574  1.00  0.00    +0.001 A 
ATOM     11  C   UNL     1     -30.592  10.074   7.063  1.00  0.00    +0.009 A 
ATOM     12  C   UNL     1     -29.284   9.567   7.015  1.00  0.00    -0.017 A 
ATOM     13  C   UNL     1     -28.992   8.275   7.513  1.00  0.00    +0.009 A 
ATOM     14  C   UNL     1     -27.697   7.758   7.472  1.00  0.00    +0.017 A 
ATOM     15  C   UNL     1     -26.712   8.558   6.927  1.00  0.00    +0.075 A 
ENDROOT
TORSDOF 0
ENDMDL
MODEL 2
REMARK VINA RESULT:    -9.359      1.176      2.045
REMARK INTER + INTRA:          -9.359
REMARK INTER:                  -9.359
REMARK INTRA:                   0.000
REMARK UNBOUND:                 0.000
REMARK SMILES O=C1OC(=O)c2c1ccc1ccccc21
REMARK SMILES IDX 1 1 2 2 3 3 4 4 5 5 6 6 15 7 14 8 13 9 12 10 11 11 10 12
REMARK SMILES IDX 9 13 8 14 7 15
REMARK H PARENT
ROOT
ATOM      1  O   UNL     1     -27.294   6.091   8.195  1.00  0.00    -0.246 OA
ATOM      2  C   UNL     1     -26.931   7.111   7.647  1.00  0.00    +0.346 C 
ATOM      3  O   UNL     1     -25.679   7.426   7.229  1.00  0.00    -0.386 OA
ATOM      4  C   UNL     1     -25.623   8.658   6.650  1.00  0.00    +0.347 C 
ATOM      5  O   UNL     1     -24.634   9.189   6.190  1.00  0.00    -0.246 OA
ATOM      6  C   UNL     1     -26.974   9.192   6.698  1.00  0.00    +0.083 A 
ATOM      7  C   UNL     1     -27.499  10.410   6.251  1.00  0.00    -0.003 A 
ATOM      8  C   UNL     1     -26.740  11.419   5.621  1.00  0.00    +0.009 A 
ATOM      9  C   UNL     1     -27.339  12.608   5.205  1.00  0.00    +0.001 A 
ATOM     10  C   UNL     1     -28.700  12.810   5.408  1.00  0.00    +0.001 A 
ATOM     11  C   UNL     1     -29.468  11.825   6.029  1.00  0.00    +0.009 A 
ATOM     12  C   UNL     1     -28.888  10.621   6.457  1.00  0.00    -0.017 A 
ATOM     13  C   UNL     1     -29.673   9.625   7.087  1.00  0.00    +0.009 A 
ATOM     14  C   UNL     1     -29.110   8.423   7.517  1.00  0.00    +0.017 A 
ATOM     15  C   UNL     1     -27.757   8.244   7.304  1.00  0.00    +0.075 A 
ENDROOT
TORSDOF 0
ENDMDL
MODEL 3
REMARK VINA RESULT:    -9.288      1.240      2.714
REMARK INTER + INTRA:          -9.288
REMARK INTER:                  -9.288
REMARK INTRA:                   0.000
REMARK UNBOUND:                 0.000
REMARK SMILES O=C1OC(=O)c2c1ccc1ccccc21
REMARK SMILES IDX 1 1 2 2 3 3 4 4 5 5 6 6 15 7 14 8 13 9 12 10 11 11 10 12
REMARK SMILES IDX 9 13 8 14 7 15
REMARK H PARENT
ROOT
ATOM      1  O   UNL     1     -24.154   8.476   6.530  1.00  0.00    -0.246 OA
ATOM      2  C   UNL     1     -25.330   8.517   6.828  1.00  0.00    +0.346 C 
ATOM      3  O   UNL     1     -26.031   7.612   7.556  1.00  0.00    -0.386 OA
ATOM      4  C   UNL     1     -27.337   7.969   7.703  1.00  0.00    +0.347 C 
ATOM      5  O   UNL     1     -28.187   7.346   8.305  1.00  0.00    -0.246 OA
ATOM      6  C   UNL     1     -27.495   9.232   7.002  1.00  0.00    +0.083 A 
ATOM      7  C   UNL     1     -28.615  10.053   6.824  1.00  0.00    -0.003 A 
ATOM      8  C   UNL     1     -29.897   9.771   7.343  1.00  0.00    +0.009 A 
ATOM      9  C   UNL     1     -30.964  10.642   7.121  1.00  0.00    +0.001 A 
ATOM     10  C   UNL     1     -30.772  11.805   6.382  1.00  0.00    +0.001 A 
ATOM     11  C   UNL     1     -29.512  12.102   5.860  1.00  0.00    +0.009 A 
ATOM     12  C   UNL     1     -28.423  11.241   6.070  1.00  0.00    -0.017 A 
ATOM     13  C   UNL     1     -27.148  11.547   5.538  1.00  0.00    +0.009 A 
ATOM     14  C   UNL     1     -26.056  10.701   5.738  1.00  0.00    +0.017 A 
ATOM     15  C   UNL     1     -26.271   9.553   6.476  1.00  0.00    +0.075 A 
ENDROOT
TORSDOF 0
ENDMDL
MODEL 4
REMARK VINA RESULT:    -9.029      1.710      4.265
REMARK INTER + INTRA:          -9.029
REMARK INTER:                  -9.029
REMARK INTRA:                   0.000
REMARK UNBOUND:                 0.000
REMARK SMILES O=C1OC(=O)c2c1ccc1ccccc21
REMARK SMILES IDX 1 1 2 2 3 3 4 4 5 5 6 6 15 7 14 8 13 9 12 10 11 11 10 12
REMARK SMILES IDX 9 13 8 14 7 15
REMARK H PARENT
ROOT
ATOM      1  O   UNL     1     -30.071  12.219   6.127  1.00  0.00    -0.246 OA
ATOM      2  C   UNL     1     -28.971  11.720   6.012  1.00  0.00    +0.346 C 
ATOM      3  O   UNL     1     -27.880  12.249   5.405  1.00  0.00    -0.386 OA
ATOM      4  C   UNL     1     -26.804  11.416   5.459  1.00  0.00    +0.347 C 
ATOM      5  O   UNL     1     -25.703  11.636   4.997  1.00  0.00    -0.246 OA
ATOM      6  C   UNL     1     -27.243  10.230   6.174  1.00  0.00    +0.083 A 
ATOM      7  C   UNL     1     -26.561   9.057   6.519  1.00  0.00    -0.003 A 
ATOM      8  C   UNL     1     -25.209   8.803   6.205  1.00  0.00    +0.009 A 
ATOM      9  C   UNL     1     -24.601   7.607   6.585  1.00  0.00    +0.001 A 
ATOM     10  C   UNL     1     -25.327   6.647   7.283  1.00  0.00    +0.001 A 
ATOM     11  C   UNL     1     -26.666   6.879   7.603  1.00  0.00    +0.009 A 
ATOM     12  C   UNL     1     -27.299   8.075   7.231  1.00  0.00    -0.017 A 
ATOM     13  C   UNL     1     -28.657   8.304   7.558  1.00  0.00    +0.009 A 
ATOM     14  C   UNL     1     -29.301   9.489   7.195  1.00  0.00    +0.017 A 
ATOM     15  C   UNL     1     -28.559  10.426   6.504  1.00  0.00    +0.075 A 
ENDROOT
TORSDOF 0
ENDMDL
MODEL 5
REMARK VINA RESULT:    -8.568      2.711      3.913
REMARK INTER + INTRA:          -8.568
REMARK INTER:                  -8.568
REMARK INTRA:                   0.000
REMARK UNBOUND:                 0.000
REMARK SMILES O=C1OC(=O)c2c1ccc1ccccc21
REMARK SMILES IDX 1 1 2 2 3 3 4 4 5 5 6 6 15 7 14 8 13 9 12 10 11 11 10 12
REMARK SMILES IDX 9 13 8 14 7 15
REMARK H PARENT
ROOT
ATOM      1  O   UNL     1     -25.364   4.462   8.598  1.00  0.00    -0.246 OA
ATOM      2  C   UNL     1     -26.169   5.343   8.380  1.00  0.00    +0.346 C 
ATOM      3  O   UNL     1     -27.475   5.381   8.746  1.00  0.00    -0.386 OA
ATOM      4  C   UNL     1     -28.092   6.524   8.337  1.00  0.00    +0.347 C 
ATOM      5  O   UNL     1     -29.254   6.819   8.528  1.00  0.00    -0.246 OA
ATOM      6  C   UNL     1     -27.085   7.304   7.639  1.00  0.00    +0.083 A 
ATOM      7  C   UNL     1     -27.157   8.555   7.014  1.00  0.00    -0.003 A 
ATOM      8  C   UNL     1     -28.324   9.344   6.951  1.00  0.00    +0.009 A 
ATOM      9  C   UNL     1     -28.314  10.582   6.308  1.00  0.00    +0.001 A 
ATOM     10  C   UNL     1     -27.144  11.053   5.721  1.00  0.00    +0.001 A 
ATOM     11  C   UNL     1     -25.979  10.287   5.773  1.00  0.00    +0.009 A 
ATOM     12  C   UNL     1     -25.964   9.038   6.414  1.00  0.00    -0.017 A 
ATOM     13  C   UNL     1     -24.779   8.266   6.462  1.00  0.00    +0.009 A 
ATOM     14  C   UNL     1     -24.750   7.023   7.096  1.00  0.00    +0.017 A 
ATOM     15  C   UNL     1     -25.923   6.577   7.672  1.00  0.00    +0.075 A 
ENDROOT
TORSDOF 0
ENDMDL
MODEL 6
REMARK VINA RESULT:    -8.169      2.520      3.968
REMARK INTER + INTRA:          -8.169
REMARK INTER:                  -8.169
REMARK INTRA:                   0.000
REMARK UNBOUND:                 0.000
REMARK SMILES O=C1OC(=O)c2c1ccc1ccccc21
REMARK SMILES IDX 1 1 2 2 3 3 4 4 5 5 6 6 15 7 14 8 13 9 12 10 11 11 10 12
REMARK SMILES IDX 9 13 8 14 7 15
REMARK H PARENT
ROOT
ATOM      1  O   UNL     1     -31.645   6.684   8.591  1.00  0.00    -0.246 OA
ATOM      2  C   UNL     1     -30.650   7.259   8.202  1.00  0.00    +0.346 C 
ATOM      3  O   UNL     1     -29.368   6.817   8.242  1.00  0.00    -0.386 OA
ATOM      4  C   UNL     1     -28.494   7.720   7.719  1.00  0.00    +0.347 C 
ATOM      5  O   UNL     1     -27.291   7.583   7.629  1.00  0.00    -0.246 OA
ATOM      6  C   UNL     1     -29.290   8.860   7.297  1.00  0.00    +0.083 A 
ATOM      7  C   UNL     1     -28.921  10.070   6.697  1.00  0.00    -0.003 A 
ATOM      8  C   UNL     1     -27.594  10.421   6.369  1.00  0.00    +0.009 A 
ATOM      9  C   UNL     1     -27.308  11.648   5.771  1.00  0.00    +0.001 A 
ATOM     10  C   UNL     1     -28.336  12.543   5.491  1.00  0.00    +0.001 A 
ATOM     11  C   UNL     1     -29.654  12.215   5.808  1.00  0.00    +0.009 A 
ATOM     12  C   UNL     1     -29.967  10.986   6.410  1.00  0.00    -0.017 A 
ATOM     13  C   UNL     1     -31.306  10.659   6.730  1.00  0.00    +0.009 A 
ATOM     14  C   UNL     1     -31.632   9.440   7.328  1.00  0.00    +0.017 A 
ATOM     15  C   UNL     1     -30.596   8.568   7.595  1.00  0.00    +0.075 A 
ENDROOT
TORSDOF 0
ENDMDL
MODEL 7
REMARK VINA RESULT:    -7.296      9.764     11.568
REMARK INTER + INTRA:          -7.296
REMARK INTER:                  -7.296
REMARK INTRA:                   0.000
REMARK UNBOUND:                 0.000
REMARK SMILES O=C1OC(=O)c2c1ccc1ccccc21
REMARK SMILES IDX 1 1 2 2 3 3 4 4 5 5 6 6 15 7 14 8 13 9 12 10 11 11 10 12
REMARK SMILES IDX 9 13 8 14 7 15
REMARK H PARENT
ROOT
ATOM      1  O   UNL     1     -35.102   6.906   7.668  1.00  0.00    -0.246 OA
ATOM      2  C   UNL     1     -35.154   5.763   8.074  1.00  0.00    +0.346 C 
ATOM      3  O   UNL     1     -34.249   4.772   7.877  1.00  0.00    -0.386 OA
ATOM      4  C   UNL     1     -34.621   3.607   8.476  1.00  0.00    +0.347 C 
ATOM      5  O   UNL     1     -34.001   2.564   8.461  1.00  0.00    -0.246 OA
ATOM      6  C   UNL     1     -35.893   3.872   9.127  1.00  0.00    +0.083 A 
ATOM      7  C   UNL     1     -36.730   3.045   9.885  1.00  0.00    -0.003 A 
ATOM      8  C   UNL     1     -36.458   1.691  10.174  1.00  0.00    +0.009 A 
ATOM      9  C   UNL     1     -37.345   0.932  10.938  1.00  0.00    +0.001 A 
ATOM     10  C   UNL     1     -38.514   1.508  11.425  1.00  0.00    +0.001 A 
ATOM     11  C   UNL     1     -38.801   2.845  11.151  1.00  0.00    +0.009 A 
ATOM     12  C   UNL     1     -37.924   3.629  10.385  1.00  0.00    -0.017 A 
ATOM     13  C   UNL     1     -38.222   4.985  10.109  1.00  0.00    +0.009 A 
ATOM     14  C   UNL     1     -37.359   5.777   9.349  1.00  0.00    +0.017 A 
ATOM     15  C   UNL     1     -36.205   5.183   8.876  1.00  0.00    +0.075 A 
ENDROOT
TORSDOF 0
ENDMDL
MODEL 8
REMARK VINA RESULT:    -7.254      9.093     10.587
REMARK INTER + INTRA:          -7.254
REMARK INTER:                  -7.254
REMARK INTRA:                   0.000
REMARK UNBOUND:                 0.000
REMARK SMILES O=C1OC(=O)c2c1ccc1ccccc21
REMARK SMILES IDX 1 1 2 2 3 3 4 4 5 5 6 6 15 7 14 8 13 9 12 10 11 11 10 12
REMARK SMILES IDX 9 13 8 14 7 15
REMARK H PARENT
ROOT
ATOM      1  O   UNL     1     -25.887   1.139   8.657  1.00  0.00    -0.246 OA
ATOM      2  C   UNL     1     -26.316   1.442   9.751  1.00  0.00    +0.346 C 
ATOM      3  O   UNL     1     -25.956   2.501  10.518  1.00  0.00    -0.386 OA
ATOM      4  C   UNL     1     -26.641   2.542  11.694  1.00  0.00    +0.347 C 
ATOM      5  O   UNL     1     -26.518   3.379  12.565  1.00  0.00    -0.246 OA
ATOM      6  C   UNL     1     -27.533   1.396  11.687  1.00  0.00    +0.083 A 
ATOM      7  C   UNL     1     -28.462   0.945  12.632  1.00  0.00    -0.003 A 
ATOM      8  C   UNL     1     -28.714   1.584  13.865  1.00  0.00    +0.009 A 
ATOM      9  C   UNL     1     -29.657   1.070  14.755  1.00  0.00    +0.001 A 
ATOM     10  C   UNL     1     -30.363  -0.084  14.433  1.00  0.00    +0.001 A 
ATOM     11  C   UNL     1     -30.129  -0.731  13.218  1.00  0.00    +0.009 A 
ATOM     12  C   UNL     1     -29.185  -0.233  12.307  1.00  0.00    -0.017 A 
ATOM     13  C   UNL     1     -28.951  -0.894  11.077  1.00  0.00    +0.009 A 
ATOM     14  C   UNL     1     -28.015  -0.411  10.161  1.00  0.00    +0.017 A 
ATOM     15  C   UNL     1     -27.327   0.737  10.503  1.00  0.00    +0.075 A 
ENDROOT
TORSDOF 0
ENDMDL
MODEL 9
REMARK VINA RESULT:    -7.243      8.118     10.287
REMARK INTER + INTRA:          -7.243
REMARK INTER:                  -7.243
REMARK INTRA:                   0.000
REMARK UNBOUND:                 0.000
REMARK SMILES O=C1OC(=O)c2c1ccc1ccccc21
REMARK SMILES IDX 1 1 2 2 3 3 4 4 5 5 6 6 15 7 14 8 13 9 12 10 11 11 10 12
REMARK SMILES IDX 9 13 8 14 7 15
REMARK H PARENT
ROOT
ATOM      1  O   UNL     1     -21.917  -1.780  10.688  1.00  0.00    -0.246 OA
ATOM      2  C   UNL     1     -22.950  -1.230  10.367  1.00  0.00    +0.346 C 
ATOM      3  O   UNL     1     -24.058  -1.798   9.829  1.00  0.00    -0.386 OA
ATOM      4  C   UNL     1     -25.040  -0.887   9.587  1.00  0.00    +0.347 C 
ATOM      5  O   UNL     1     -26.133  -1.119   9.112  1.00  0.00    -0.246 OA
ATOM      6  C   UNL     1     -24.515   0.400  10.013  1.00  0.00    +0.083 A 
ATOM      7  C   UNL     1     -25.086   1.678   9.998  1.00  0.00    -0.003 A 
ATOM      8  C   UNL     1     -26.384   1.963   9.526  1.00  0.00    +0.009 A 
ATOM      9  C   UNL     1     -26.881   3.266   9.545  1.00  0.00    +0.001 A 
ATOM     10  C   UNL     1     -26.094   4.305  10.033  1.00  0.00    +0.001 A 
ATOM     11  C   UNL     1     -24.807   4.044  10.504  1.00  0.00    +0.009 A 
ATOM     12  C   UNL     1     -24.285   2.741  10.496  1.00  0.00    -0.017 A 
ATOM     13  C   UNL     1     -22.979   2.483  10.975  1.00  0.00    +0.009 A 
ATOM     14  C   UNL     1     -22.447   1.192  10.973  1.00  0.00    +0.017 A 
ATOM     15  C   UNL     1     -23.247   0.178  10.484  1.00  0.00    +0.075 A 
ENDROOT
TORSDOF 0
ENDMDL
