REMARK SMILES O=C1C2=C(CCCC2)C(=O)c2ccccc21
REMARK SMILES IDX 1 1 2 2 3 3 4 4 5 5 6 6 7 7 8 8 9 9 10 10 11 11 16 12 15 13
REMARK SMILES IDX 14 14 13 15 12 16
REMARK H PARENT
ROOT
ATOM      1  O   UNL     1       0.474   2.581   0.694  1.00  0.00    -0.289 OA
ATOM      2  C   UNL     1       0.475   1.395   0.385  1.00  0.00    +0.190 C 
ATOM      3  C   UNL     1      -0.794   0.663   0.130  1.00  0.00    +0.007 C 
ATOM      4  C   UNL     1      -0.796  -0.642  -0.190  1.00  0.00    +0.007 C 
ATOM      5  C   UNL     1      -2.065  -1.423  -0.425  1.00  0.00    +0.040 C 
ATOM      6  C   UNL     1      -3.322  -0.692   0.050  1.00  0.00    +0.005 C 
ATOM      7  C   UNL     1      -3.284   0.778  -0.350  1.00  0.00    +0.005 C 
ATOM      8  C   UNL     1      -2.059   1.476   0.244  1.00  0.00    +0.040 C 
ATOM      9  C   UNL     1       0.472  -1.407  -0.324  1.00  0.00    +0.190 C 
ATOM     10  O   UNL     1       0.470  -2.593  -0.633  1.00  0.00    -0.289 OA
ATOM     11  C   UNL     1       1.741  -0.697  -0.080  1.00  0.00    +0.033 A 
ATOM     12  C   UNL     1       1.742   0.652   0.262  1.00  0.00    +0.033 A 
ATOM     13  C   UNL     1       2.957   1.313   0.492  1.00  0.00    +0.013 A 
ATOM     14  C   UNL     1       4.164   0.621   0.378  1.00  0.00    +0.001 A 
ATOM     15  C   UNL     1       4.162  -0.730   0.035  1.00  0.00    +0.001 A 
ATOM     16  C   UNL     1       2.954  -1.390  -0.194  1.00  0.00    +0.013 A 
ENDROOT
TORSDOF 0
