REMARK SMILES COc1ccc(C2=CC(=O)C(c3ccc(OC)cc3)=CC2=O)cc1
REMARK SMILES IDX 7 1 8 2 9 3 10 4 11 5 20 6 21 7 22 8 6 9 3 10 4 11 24 12
REMARK SMILES IDX 5 13 23 14 2 15 1 16 12 17 13 18 19 19 14 20 18 21 15 22
REMARK SMILES IDX 16 23 17 24
REMARK H PARENT
ROOT
ATOM      1  C   UNL     1      -1.431   0.358   0.137  1.00  0.00    +0.033 C 
ATOM      2  C   UNL     1      -0.678   0.873  -0.847  1.00  0.00    +0.065 C 
ATOM      3  C   UNL     1       0.796   0.805  -0.854  1.00  0.00    +0.187 C 
ATOM      4  O   UNL     1       1.414   1.308  -1.785  1.00  0.00    -0.289 OA
ATOM      5  C   UNL     1       1.466   0.121   0.288  1.00  0.00    +0.033 C 
ATOM      6  C   UNL     1       0.715  -0.395   1.272  1.00  0.00    +0.065 C 
ATOM      7  C   UNL     1      -0.760  -0.338   1.272  1.00  0.00    +0.187 C 
ATOM      8  O   UNL     1      -1.378  -0.859   2.194  1.00  0.00    -0.289 OA
ENDROOT
BRANCH   1   9
ATOM      9  C   UNL     1      -2.902   0.463   0.058  1.00  0.00    -0.014 A 
ATOM     10  C   UNL     1      -5.716   0.647  -0.102  1.00  0.00    +0.118 A 
ATOM     11  C   UNL     1      -5.103  -0.586   0.113  1.00  0.00    +0.047 A 
ATOM     12  C   UNL     1      -4.921   1.786  -0.233  1.00  0.00    +0.047 A 
ATOM     13  C   UNL     1      -3.707  -0.676   0.193  1.00  0.00    +0.013 A 
ATOM     14  C   UNL     1      -3.528   1.700  -0.151  1.00  0.00    +0.013 A 
BRANCH  10  15
ATOM     15  O   UNL     1      -7.061   0.873  -0.200  1.00  0.00    -0.497 OA
ATOM     16  C   UNL     1      -7.915  -0.252  -0.034  1.00  0.00    +0.278 C 
ENDBRANCH  10  15
ENDBRANCH   1   9
BRANCH   5  17
ATOM     17  C   UNL     1       2.938   0.026   0.374  1.00  0.00    -0.014 A 
ATOM     18  C   UNL     1       3.573  -1.210   0.562  1.00  0.00    +0.013 A 
ATOM     19  C   UNL     1       3.731   1.175   0.270  1.00  0.00    +0.013 A 
ATOM     20  C   UNL     1       4.969  -1.296   0.653  1.00  0.00    +0.047 A 
ATOM     21  C   UNL     1       5.123   1.087   0.362  1.00  0.00    +0.047 A 
ATOM     22  C   UNL     1       5.750  -0.145   0.555  1.00  0.00    +0.118 A 
BRANCH  22  23
ATOM     23  O   UNL     1       7.114  -0.089   0.629  1.00  0.00    -0.497 OA
ATOM     24  C   UNL     1       7.802  -1.322   0.795  1.00  0.00    +0.278 C 
ENDBRANCH  22  23
ENDBRANCH   5  17
TORSDOF 4
