REMARK SMILES CCc1nc(Nc2cc(Cl)ccc2Cl)c2cnn(-c3ccccc3)c2n1
REMARK SMILES IDX 3 1 4 2 5 3 15 4 16 5 17 6 18 7 25 8 26 9 2 10 1 11 6 12
REMARK SMILES IDX 7 14 13 15 8 16 12 17 9 18 11 19 14 20 10 21 19 22 20 23
REMARK SMILES IDX 24 24 21 25 23 26 22 27
REMARK H PARENT 6 13
ROOT
ATOM      1  C   UNL     1      -0.078   1.004   0.993  1.00  0.00    +0.133 A 
ATOM      2  N   UNL     1       1.116   0.422   0.764  1.00  0.00    -0.215 NA
ATOM      3  C   UNL     1       1.213  -0.603  -0.117  1.00  0.00    +0.145 A 
ATOM      4  C   UNL     1       0.035  -1.027  -0.743  1.00  0.00    +0.082 A 
ATOM      5  C   UNL     1      -0.337  -1.998  -1.683  1.00  0.00    +0.150 A 
ATOM      6  N   UNL     1      -1.642  -1.995  -1.950  1.00  0.00    -0.174 NA
ATOM      7  N   UNL     1      -2.149  -0.975  -1.186  1.00  0.00    -0.215 N 
ATOM      8  C   UNL     1      -1.143  -0.367  -0.433  1.00  0.00    +0.168 A 
ATOM      9  N   UNL     1      -1.250   0.661   0.432  1.00  0.00    -0.213 NA
ENDROOT
BRANCH   1  10
ATOM     10  C   UNL     1      -0.091   2.169   1.945  1.00  0.00    +0.074 C 
ATOM     11  C   UNL     1       0.175   3.476   1.216  1.00  0.00    +0.012 C 
ENDBRANCH   1  10
BRANCH   3  12
ATOM     12  N   UNL     1       2.452  -1.228  -0.357  1.00  0.00    -0.338 N 
ATOM     13  H   UNL     1       2.341  -2.213  -0.563  1.00  0.00    +0.168 HD
BRANCH  12  14
ATOM     14  C   UNL     1       3.668  -0.907   0.288  1.00  0.00    +0.060 A 
ATOM     15  C   UNL     1       4.284   0.359   0.193  1.00  0.00    +0.064 A 
ATOM     16  C   UNL     1       4.248  -1.867   1.135  1.00  0.00    +0.048 A 
ATOM     17  C   UNL     1       5.447   0.644   0.919  1.00  0.00    +0.024 A 
ATOM     18  C   UNL     1       5.407  -1.573   1.855  1.00  0.00    +0.043 A 
ATOM     19  C   UNL     1       6.008  -0.322   1.753  1.00  0.00    +0.022 A 
ATOM     20 Cl   UNL     1       3.711   1.582  -0.891  1.00  0.00    -0.082 Cl
ATOM     21 Cl   UNL     1       6.095  -2.768   2.885  1.00  0.00    -0.084 Cl
ENDBRANCH  12  14
ENDBRANCH   3  12
BRANCH   7  22
ATOM     22  C   UNL     1      -3.547  -0.680  -1.245  1.00  0.00    +0.067 A 
ATOM     23  C   UNL     1      -4.121   0.352  -0.492  1.00  0.00    +0.028 A 
ATOM     24  C   UNL     1      -4.373  -1.447  -2.086  1.00  0.00    +0.028 A 
ATOM     25  C   UNL     1      -5.494   0.609  -0.579  1.00  0.00    +0.002 A 
ATOM     26  C   UNL     1      -5.743  -1.185  -2.168  1.00  0.00    +0.002 A 
ATOM     27  C   UNL     1      -6.303  -0.158  -1.415  1.00  0.00    +0.000 A 
ENDBRANCH   7  22
TORSDOF 4
