MODEL 1
REMARK VINA RESULT:    -9.917      0.000      0.000
REMARK INTER + INTRA:         -11.499
REMARK INTER:                 -11.366
REMARK INTRA:                  -0.132
REMARK UNBOUND:                -0.132
REMARK SMILES NCCc1ccc2ccc3ccccc3c2c1
REMARK SMILES IDX 2 1 1 2 3 5 4 6 17 7 5 8 16 9 6 10 15 11 7 12 14 13 10 14
REMARK SMILES IDX 8 15 13 16 11 17 9 18 12 19
REMARK H PARENT 1 3 1 4
ROOT
ATOM      1  C   UNL     1     -32.034  10.555   8.327  1.00  0.00    +0.082 C 
ENDROOT
BRANCH   1   2
ATOM      2  N   UNL     1     -33.080   9.643   7.864  1.00  0.00    -0.330 NA
ATOM      3  H   UNL     1     -33.966  10.142   7.803  1.00  0.00    +0.118 HD
ATOM      4  H   UNL     1     -33.215   8.910   8.560  1.00  0.00    +0.118 HD
ENDBRANCH   1   2
BRANCH   1   5
ATOM      5  C   UNL     1     -31.555  11.469   7.195  1.00  0.00    +0.050 C 
BRANCH   5   6
ATOM      6  C   UNL     1     -30.130  11.165   6.799  1.00  0.00    -0.046 A 
ATOM      7  C   UNL     1     -29.527   9.956   7.186  1.00  0.00    +0.013 A 
ATOM      8  C   UNL     1     -29.383  12.088   6.071  1.00  0.00    +0.004 A 
ATOM      9  C   UNL     1     -28.185   9.628   6.859  1.00  0.00    -0.010 A 
ATOM     10  C   UNL     1     -28.063  11.802   5.732  1.00  0.00    +0.009 A 
ATOM     11  C   UNL     1     -27.535   8.398   7.237  1.00  0.00    -0.011 A 
ATOM     12  C   UNL     1     -27.460  10.592   6.114  1.00  0.00    -0.018 A 
ATOM     13  C   UNL     1     -28.157   7.362   7.981  1.00  0.00    +0.009 A 
ATOM     14  C   UNL     1     -26.186   8.181   6.855  1.00  0.00    -0.018 A 
ATOM     15  C   UNL     1     -26.133  10.343   5.755  1.00  0.00    +0.009 A 
ATOM     16  C   UNL     1     -27.487   6.184   8.326  1.00  0.00    +0.001 A 
ATOM     17  C   UNL     1     -25.524   6.994   7.206  1.00  0.00    +0.009 A 
ATOM     18  C   UNL     1     -25.505   9.155   6.119  1.00  0.00    +0.009 A 
ATOM     19  C   UNL     1     -26.169   6.000   7.938  1.00  0.00    +0.001 A 
ENDBRANCH   5   6
ENDBRANCH   1   5
TORSDOF 3
ENDMDL
MODEL 2
REMARK VINA RESULT:    -9.730      2.363      5.377
REMARK INTER + INTRA:         -11.284
REMARK INTER:                 -11.201
REMARK INTRA:                  -0.083
REMARK UNBOUND:                -0.132
REMARK SMILES NCCc1ccc2ccc3ccccc3c2c1
REMARK SMILES IDX 2 1 1 2 3 5 4 6 17 7 5 8 16 9 6 10 15 11 7 12 14 13 10 14
REMARK SMILES IDX 8 15 13 16 11 17 9 18 12 19
REMARK H PARENT 1 3 1 4
ROOT
ATOM      1  C   UNL     1     -25.560   5.122   9.225  1.00  0.00    +0.082 C 
ENDROOT
BRANCH   1   2
ATOM      2  N   UNL     1     -26.097   4.447  10.406  1.00  0.00    -0.330 NA
ATOM      3  H   UNL     1     -27.092   4.651  10.493  1.00  0.00    +0.118 HD
ATOM      4  H   UNL     1     -25.656   4.833  11.240  1.00  0.00    +0.118 HD
ENDBRANCH   1   2
BRANCH   1   5
ATOM      5  C   UNL     1     -26.673   5.468   8.230  1.00  0.00    +0.050 C 
BRANCH   5   6
ATOM      6  C   UNL     1     -26.430   6.800   7.563  1.00  0.00    -0.046 A 
ATOM      7  C   UNL     1     -27.477   7.727   7.425  1.00  0.00    +0.013 A 
ATOM      8  C   UNL     1     -25.175   7.120   7.051  1.00  0.00    +0.004 A 
ATOM      9  C   UNL     1     -27.309   8.985   6.788  1.00  0.00    -0.010 A 
ATOM     10  C   UNL     1     -24.972   8.345   6.420  1.00  0.00    +0.009 A 
ATOM     11  C   UNL     1     -28.359   9.960   6.629  1.00  0.00    -0.011 A 
ATOM     12  C   UNL     1     -26.016   9.274   6.284  1.00  0.00    -0.018 A 
ATOM     13  C   UNL     1     -29.689   9.783   7.090  1.00  0.00    +0.009 A 
ATOM     14  C   UNL     1     -28.073  11.185   5.973  1.00  0.00    -0.018 A 
ATOM     15  C   UNL     1     -25.773  10.491   5.644  1.00  0.00    +0.009 A 
ATOM     16  C   UNL     1     -30.676  10.759   6.914  1.00  0.00    +0.001 A 
ATOM     17  C   UNL     1     -29.073  12.156   5.802  1.00  0.00    +0.009 A 
ATOM     18  C   UNL     1     -26.785  11.433   5.490  1.00  0.00    +0.009 A 
ATOM     19  C   UNL     1     -30.368  11.946   6.269  1.00  0.00    +0.001 A 
ENDBRANCH   5   6
ENDBRANCH   1   5
TORSDOF 3
ENDMDL
MODEL 3
REMARK VINA RESULT:    -8.331      2.215      3.345
REMARK INTER + INTRA:          -9.681
REMARK INTER:                  -9.591
REMARK INTRA:                  -0.090
REMARK UNBOUND:                -0.132
REMARK SMILES NCCc1ccc2ccc3ccccc3c2c1
REMARK SMILES IDX 2 1 1 2 3 5 4 6 17 7 5 8 16 9 6 10 15 11 7 12 14 13 10 14
REMARK SMILES IDX 8 15 13 16 11 17 9 18 12 19
REMARK H PARENT 1 3 1 4
ROOT
ATOM      1  C   UNL     1     -31.765   6.004   9.171  1.00  0.00    +0.082 C 
ENDROOT
BRANCH   1   2
ATOM      2  N   UNL     1     -32.589   4.882   9.618  1.00  0.00    -0.330 NA
ATOM      3  H   UNL     1     -32.790   4.980  10.612  1.00  0.00    +0.118 HD
ATOM      4  H   UNL     1     -32.056   4.017   9.521  1.00  0.00    +0.118 HD
ENDBRANCH   1   2
BRANCH   1   5
ATOM      5  C   UNL     1     -32.291   6.588   7.856  1.00  0.00    +0.050 C 
BRANCH   5   6
ATOM      6  C   UNL     1     -31.501   7.802   7.431  1.00  0.00    -0.046 A 
ATOM      7  C   UNL     1     -30.102   7.735   7.316  1.00  0.00    +0.013 A 
ATOM      8  C   UNL     1     -32.141   9.013   7.174  1.00  0.00    +0.004 A 
ATOM      9  C   UNL     1     -29.308   8.851   6.940  1.00  0.00    -0.010 A 
ATOM     10  C   UNL     1     -31.396  10.129   6.802  1.00  0.00    +0.009 A 
ATOM     11  C   UNL     1     -27.873   8.818   6.810  1.00  0.00    -0.011 A 
ATOM     12  C   UNL     1     -29.998  10.063   6.682  1.00  0.00    -0.018 A 
ATOM     13  C   UNL     1     -27.076   7.668   7.041  1.00  0.00    +0.009 A 
ATOM     14  C   UNL     1     -27.185  10.000   6.429  1.00  0.00    -0.018 A 
ATOM     15  C   UNL     1     -29.286  11.205   6.309  1.00  0.00    +0.009 A 
ATOM     16  C   UNL     1     -25.684   7.683   6.903  1.00  0.00    +0.001 A 
ATOM     17  C   UNL     1     -25.787  10.002   6.293  1.00  0.00    +0.009 A 
ATOM     18  C   UNL     1     -27.901  11.175   6.183  1.00  0.00    +0.009 A 
ATOM     19  C   UNL     1     -25.040   8.851   6.529  1.00  0.00    +0.001 A 
ENDBRANCH   5   6
ENDBRANCH   1   5
TORSDOF 3
ENDMDL
MODEL 4
REMARK VINA RESULT:    -7.837      6.183      8.237
REMARK INTER + INTRA:          -9.114
REMARK INTER:                  -8.977
REMARK INTRA:                  -0.138
REMARK UNBOUND:                -0.132
REMARK SMILES NCCc1ccc2ccc3ccccc3c2c1
REMARK SMILES IDX 2 1 1 2 3 5 4 6 17 7 5 8 16 9 6 10 15 11 7 12 14 13 10 14
REMARK SMILES IDX 8 15 13 16 11 17 9 18 12 19
REMARK H PARENT 1 3 1 4
ROOT
ATOM      1  C   UNL     1     -38.540   4.919   9.239  1.00  0.00    +0.082 C 
ENDROOT
BRANCH   1   2
ATOM      2  N   UNL     1     -39.073   5.807  10.271  1.00  0.00    -0.330 NA
ATOM      3  H   UNL     1     -40.048   6.024  10.065  1.00  0.00    +0.118 HD
ATOM      4  H   UNL     1     -38.573   6.696  10.237  1.00  0.00    +0.118 HD
ENDBRANCH   1   2
BRANCH   1   5
ATOM      5  C   UNL     1     -37.582   3.885   9.840  1.00  0.00    +0.050 C 
BRANCH   5   6
ATOM      6  C   UNL     1     -36.150   4.361   9.796  1.00  0.00    -0.046 A 
ATOM      7  C   UNL     1     -35.630   4.940   8.625  1.00  0.00    +0.013 A 
ATOM      8  C   UNL     1     -35.315   4.207  10.900  1.00  0.00    +0.004 A 
ATOM      9  C   UNL     1     -34.286   5.385   8.521  1.00  0.00    -0.010 A 
ATOM     10  C   UNL     1     -33.991   4.633  10.836  1.00  0.00    +0.009 A 
ATOM     11  C   UNL     1     -33.719   5.985   7.339  1.00  0.00    -0.011 A 
ATOM     12  C   UNL     1     -33.470   5.216   9.668  1.00  0.00    -0.018 A 
ATOM     13  C   UNL     1     -34.435   6.205   6.134  1.00  0.00    +0.009 A 
ATOM     14  C   UNL     1     -32.359   6.391   7.352  1.00  0.00    -0.018 A 
ATOM     15  C   UNL     1     -32.136   5.628   9.643  1.00  0.00    +0.009 A 
ATOM     16  C   UNL     1     -33.843   6.791   5.010  1.00  0.00    +0.001 A 
ATOM     17  C   UNL     1     -31.777   6.979   6.217  1.00  0.00    +0.009 A 
ATOM     18  C   UNL     1     -31.588   6.207   8.503  1.00  0.00    +0.009 A 
ATOM     19  C   UNL     1     -32.513   7.178   5.052  1.00  0.00    +0.001 A 
ENDBRANCH   5   6
ENDBRANCH   1   5
TORSDOF 3
ENDMDL
MODEL 5
REMARK VINA RESULT:    -7.606      8.278     10.757
REMARK INTER + INTRA:          -8.850
REMARK INTER:                  -8.735
REMARK INTRA:                  -0.115
REMARK UNBOUND:                -0.132
REMARK SMILES NCCc1ccc2ccc3ccccc3c2c1
REMARK SMILES IDX 2 1 1 2 3 5 4 6 17 7 5 8 16 9 6 10 15 11 7 12 14 13 10 14
REMARK SMILES IDX 8 15 13 16 11 17 9 18 12 19
REMARK H PARENT 1 3 1 4
ROOT
ATOM      1  C   UNL     1     -24.364   2.413   9.991  1.00  0.00    +0.082 C 
ENDROOT
BRANCH   1   2
ATOM      2  N   UNL     1     -24.016   1.254   9.170  1.00  0.00    -0.330 NA
ATOM      3  H   UNL     1     -23.002   1.174   9.103  1.00  0.00    +0.118 HD
ATOM      4  H   UNL     1     -24.351   1.407   8.219  1.00  0.00    +0.118 HD
ENDBRANCH   1   2
BRANCH   1   5
ATOM      5  C   UNL     1     -25.806   2.862   9.733  1.00  0.00    +0.050 C 
BRANCH   5   6
ATOM      6  C   UNL     1     -26.732   2.426  10.842  1.00  0.00    -0.046 A 
ATOM      7  C   UNL     1     -27.813   1.569  10.570  1.00  0.00    +0.013 A 
ATOM      8  C   UNL     1     -26.549   2.887  12.143  1.00  0.00    +0.004 A 
ATOM      9  C   UNL     1     -28.726   1.145  11.570  1.00  0.00    -0.010 A 
ATOM     10  C   UNL     1     -27.424   2.491  13.152  1.00  0.00    +0.009 A 
ATOM     11  C   UNL     1     -29.844   0.266  11.328  1.00  0.00    -0.011 A 
ATOM     12  C   UNL     1     -28.503   1.632  12.883  1.00  0.00    -0.018 A 
ATOM     13  C   UNL     1     -30.168  -0.283  10.060  1.00  0.00    +0.009 A 
ATOM     14  C   UNL     1     -30.692  -0.089  12.408  1.00  0.00    -0.018 A 
ATOM     15  C   UNL     1     -29.359   1.260  13.921  1.00  0.00    +0.009 A 
ATOM     16  C   UNL     1     -31.263  -1.132   9.872  1.00  0.00    +0.001 A 
ATOM     17  C   UNL     1     -31.789  -0.943  12.206  1.00  0.00    +0.009 A 
ATOM     18  C   UNL     1     -30.438   0.411  13.688  1.00  0.00    +0.009 A 
ATOM     19  C   UNL     1     -32.074  -1.462  10.947  1.00  0.00    +0.001 A 
ENDBRANCH   5   6
ENDBRANCH   1   5
TORSDOF 3
ENDMDL
MODEL 6
REMARK VINA RESULT:    -7.465      6.296      8.171
REMARK INTER + INTRA:          -8.689
REMARK INTER:                  -8.566
REMARK INTRA:                  -0.123
REMARK UNBOUND:                -0.132
REMARK SMILES NCCc1ccc2ccc3ccccc3c2c1
REMARK SMILES IDX 2 1 1 2 3 5 4 6 17 7 5 8 16 9 6 10 15 11 7 12 14 13 10 14
REMARK SMILES IDX 8 15 13 16 11 17 9 18 12 19
REMARK H PARENT 1 3 1 4
ROOT
ATOM      1  C   UNL     1     -34.419   1.909  11.434  1.00  0.00    +0.082 C 
ENDROOT
BRANCH   1   2
ATOM      2  N   UNL     1     -33.219   1.074  11.474  1.00  0.00    -0.330 NA
ATOM      3  H   UNL     1     -32.765   1.084  10.562  1.00  0.00    +0.118 HD
ATOM      4  H   UNL     1     -33.492   0.106  11.644  1.00  0.00    +0.118 HD
ENDBRANCH   1   2
BRANCH   1   5
ATOM      5  C   UNL     1     -34.064   3.379  11.193  1.00  0.00    +0.050 C 
BRANCH   5   6
ATOM      6  C   UNL     1     -34.146   3.739   9.729  1.00  0.00    -0.046 A 
ATOM      7  C   UNL     1     -33.381   4.800   9.213  1.00  0.00    +0.013 A 
ATOM      8  C   UNL     1     -35.001   3.048   8.874  1.00  0.00    +0.004 A 
ATOM      9  C   UNL     1     -33.435   5.194   7.851  1.00  0.00    -0.010 A 
ATOM     10  C   UNL     1     -35.081   3.405   7.530  1.00  0.00    +0.009 A 
ATOM     11  C   UNL     1     -32.664   6.274   7.287  1.00  0.00    -0.011 A 
ATOM     12  C   UNL     1     -34.314   4.462   7.012  1.00  0.00    -0.018 A 
ATOM     13  C   UNL     1     -31.755   7.075   8.025  1.00  0.00    +0.009 A 
ATOM     14  C   UNL     1     -32.803   6.578   5.908  1.00  0.00    -0.018 A 
ATOM     15  C   UNL     1     -34.423   4.791   5.659  1.00  0.00    +0.009 A 
ATOM     16  C   UNL     1     -31.028   8.114   7.435  1.00  0.00    +0.001 A 
ATOM     17  C   UNL     1     -32.066   7.624   5.328  1.00  0.00    +0.009 A 
ATOM     18  C   UNL     1     -33.679   5.833   5.115  1.00  0.00    +0.009 A 
ATOM     19  C   UNL     1     -31.184   8.388   6.086  1.00  0.00    +0.001 A 
ENDBRANCH   5   6
ENDBRANCH   1   5
TORSDOF 3
ENDMDL
MODEL 7
REMARK VINA RESULT:    -7.215      7.740      9.897
REMARK INTER + INTRA:          -8.402
REMARK INTER:                  -8.273
REMARK INTRA:                  -0.128
REMARK UNBOUND:                -0.132
REMARK SMILES NCCc1ccc2ccc3ccccc3c2c1
REMARK SMILES IDX 2 1 1 2 3 5 4 6 17 7 5 8 16 9 6 10 15 11 7 12 14 13 10 14
REMARK SMILES IDX 8 15 13 16 11 17 9 18 12 19
REMARK H PARENT 1 3 1 4
ROOT
ATOM      1  C   UNL     1     -38.669   5.307   9.420  1.00  0.00    +0.082 C 
ENDROOT
BRANCH   1   2
ATOM      2  N   UNL     1     -38.767   6.711   9.819  1.00  0.00    -0.330 NA
ATOM      3  H   UNL     1     -39.429   6.803  10.588  1.00  0.00    +0.118 HD
ATOM      4  H   UNL     1     -39.156   7.251   9.045  1.00  0.00    +0.118 HD
ENDBRANCH   1   2
BRANCH   1   5
ATOM      5  C   UNL     1     -38.606   4.387  10.644  1.00  0.00    +0.050 C 
BRANCH   5   6
ATOM      6  C   UNL     1     -37.386   3.499  10.610  1.00  0.00    -0.046 A 
ATOM      7  C   UNL     1     -36.134   4.024  10.249  1.00  0.00    +0.013 A 
ATOM      8  C   UNL     1     -37.487   2.142  10.909  1.00  0.00    +0.004 A 
ATOM      9  C   UNL     1     -34.959   3.231  10.181  1.00  0.00    -0.010 A 
ATOM     10  C   UNL     1     -36.356   1.332  10.854  1.00  0.00    +0.009 A 
ATOM     11  C   UNL     1     -33.659   3.735   9.816  1.00  0.00    -0.011 A 
ATOM     12  C   UNL     1     -35.102   1.856  10.497  1.00  0.00    -0.018 A 
ATOM     13  C   UNL     1     -33.393   5.088   9.480  1.00  0.00    +0.009 A 
ATOM     14  C   UNL     1     -32.555   2.844   9.781  1.00  0.00    -0.018 A 
ATOM     15  C   UNL     1     -33.992   1.010  10.451  1.00  0.00    +0.009 A 
ATOM     16  C   UNL     1     -32.113   5.533   9.132  1.00  0.00    +0.001 A 
ATOM     17  C   UNL     1     -31.275   3.304   9.430  1.00  0.00    +0.009 A 
ATOM     18  C   UNL     1     -32.737   1.496  10.099  1.00  0.00    +0.009 A 
ATOM     19  C   UNL     1     -31.054   4.640   9.107  1.00  0.00    +0.001 A 
ENDBRANCH   5   6
ENDBRANCH   1   5
TORSDOF 3
ENDMDL
MODEL 8
REMARK VINA RESULT:    -7.195      5.333      8.535
REMARK INTER + INTRA:          -8.379
REMARK INTER:                  -8.240
REMARK INTRA:                  -0.139
REMARK UNBOUND:                -0.132
REMARK SMILES NCCc1ccc2ccc3ccccc3c2c1
REMARK SMILES IDX 2 1 1 2 3 5 4 6 17 7 5 8 16 9 6 10 15 11 7 12 14 13 10 14
REMARK SMILES IDX 8 15 13 16 11 17 9 18 12 19
REMARK H PARENT 1 3 1 4
ROOT
ATOM      1  C   UNL     1     -30.794   0.825  10.218  1.00  0.00    +0.082 C 
ENDROOT
BRANCH   1   2
ATOM      2  N   UNL     1     -30.467  -0.347   9.407  1.00  0.00    -0.330 NA
ATOM      3  H   UNL     1     -29.548  -0.701   9.672  1.00  0.00    +0.118 HD
ATOM      4  H   UNL     1     -30.390  -0.066   8.430  1.00  0.00    +0.118 HD
ENDBRANCH   1   2
BRANCH   1   5
ATOM      5  C   UNL     1     -30.150   0.736  11.605  1.00  0.00    +0.050 C 
BRANCH   5   6
ATOM      6  C   UNL     1     -28.748   1.296  11.605  1.00  0.00    -0.046 A 
ATOM      7  C   UNL     1     -28.391   2.320  10.710  1.00  0.00    +0.013 A 
ATOM      8  C   UNL     1     -27.781   0.791  12.470  1.00  0.00    +0.004 A 
ATOM      9  C   UNL     1     -27.083   2.868  10.653  1.00  0.00    -0.010 A 
ATOM     10  C   UNL     1     -26.487   1.304  12.444  1.00  0.00    +0.009 A 
ATOM     11  C   UNL     1     -26.683   3.918   9.750  1.00  0.00    -0.011 A 
ATOM     12  C   UNL     1     -26.129   2.330  11.553  1.00  0.00    -0.018 A 
ATOM     13  C   UNL     1     -27.546   4.533   8.807  1.00  0.00    +0.009 A 
ATOM     14  C   UNL     1     -25.343   4.386   9.783  1.00  0.00    -0.018 A 
ATOM     15  C   UNL     1     -24.820   2.817  11.556  1.00  0.00    +0.009 A 
ATOM     16  C   UNL     1     -27.113   5.550   7.950  1.00  0.00    +0.001 A 
ATOM     17  C   UNL     1     -24.921   5.408   8.917  1.00  0.00    +0.009 A 
ATOM     18  C   UNL     1     -24.433   3.830  10.685  1.00  0.00    +0.009 A 
ATOM     19  C   UNL     1     -25.799   5.987   8.005  1.00  0.00    +0.001 A 
ENDBRANCH   5   6
ENDBRANCH   1   5
TORSDOF 3
ENDMDL
MODEL 9
REMARK VINA RESULT:    -7.159      7.979     10.682
REMARK INTER + INTRA:          -8.338
REMARK INTER:                  -8.250
REMARK INTRA:                  -0.088
REMARK UNBOUND:                -0.132
REMARK SMILES NCCc1ccc2ccc3ccccc3c2c1
REMARK SMILES IDX 2 1 1 2 3 5 4 6 17 7 5 8 16 9 6 10 15 11 7 12 14 13 10 14
REMARK SMILES IDX 8 15 13 16 11 17 9 18 12 19
REMARK H PARENT 1 3 1 4
ROOT
ATOM      1  C   UNL     1     -31.248   0.951  12.103  1.00  0.00    +0.082 C 
ENDROOT
BRANCH   1   2
ATOM      2  N   UNL     1     -30.871   0.224  13.314  1.00  0.00    -0.330 NA
ATOM      3  H   UNL     1     -31.666  -0.321  13.648  1.00  0.00    +0.118 HD
ATOM      4  H   UNL     1     -30.658   0.894  14.053  1.00  0.00    +0.118 HD
ENDBRANCH   1   2
BRANCH   1   5
ATOM      5  C   UNL     1     -32.768   1.116  12.006  1.00  0.00    +0.050 C 
BRANCH   5   6
ATOM      6  C   UNL     1     -33.147   2.241  11.073  1.00  0.00    -0.046 A 
ATOM      7  C   UNL     1     -34.452   2.763  11.083  1.00  0.00    +0.013 A 
ATOM      8  C   UNL     1     -32.221   2.758  10.169  1.00  0.00    +0.004 A 
ATOM      9  C   UNL     1     -34.868   3.805  10.213  1.00  0.00    -0.010 A 
ATOM     10  C   UNL     1     -32.593   3.781   9.301  1.00  0.00    +0.009 A 
ATOM     11  C   UNL     1     -36.197   4.366  10.197  1.00  0.00    -0.011 A 
ATOM     12  C   UNL     1     -33.896   4.307   9.312  1.00  0.00    -0.018 A 
ATOM     13  C   UNL     1     -37.251   3.946  11.048  1.00  0.00    +0.009 A 
ATOM     14  C   UNL     1     -36.498   5.406   9.279  1.00  0.00    -0.018 A 
ATOM     15  C   UNL     1     -34.230   5.332   8.424  1.00  0.00    +0.009 A 
ATOM     16  C   UNL     1     -38.525   4.520  10.996  1.00  0.00    +0.001 A 
ATOM     17  C   UNL     1     -37.782   5.974   9.238  1.00  0.00    +0.009 A 
ATOM     18  C   UNL     1     -35.511   5.874   8.408  1.00  0.00    +0.009 A 
ATOM     19  C   UNL     1     -38.791   5.534  10.090  1.00  0.00    +0.001 A 
ENDBRANCH   5   6
ENDBRANCH   1   5
TORSDOF 3
ENDMDL
