REMARK SMILES CC(=O)Oc1ccc2ccc3ccc(C(C)=O)cc3c2c1
REMARK SMILES IDX 5 1 21 2 20 3 19 4 18 5 14 6 13 7 12 8 11 9 10 10 9 11 8 12
REMARK SMILES IDX 7 13 6 14 4 15 2 16 3 17 1 18 15 19 17 20 16 21
REMARK H PARENT
ROOT
ATOM      1  C   UNL     1      -2.770  -0.152  -0.214  1.00  0.00    +0.131 A 
ATOM      2  C   UNL     1      -1.408  -0.309   0.050  1.00  0.00    +0.056 A 
ATOM      3  C   UNL     1      -0.425   0.396  -0.687  1.00  0.00    -0.007 A 
ATOM      4  C   UNL     1       0.993   0.287  -0.453  1.00  0.00    -0.010 A 
ATOM      5  C   UNL     1       1.575  -0.538   0.543  1.00  0.00    +0.021 A 
ATOM      6  C   UNL     1       2.964  -0.618   0.743  1.00  0.00    +0.018 A 
ATOM      7  C   UNL     1       3.812   0.138  -0.061  1.00  0.00    +0.012 A 
ATOM      8  C   UNL     1       3.273   0.961  -1.050  1.00  0.00    +0.009 A 
ATOM      9  C   UNL     1       1.886   1.043  -1.254  1.00  0.00    -0.018 A 
ATOM     10  C   UNL     1       1.388   1.880  -2.256  1.00  0.00    +0.009 A 
ATOM     11  C   UNL     1       0.018   1.984  -2.484  1.00  0.00    +0.009 A 
ATOM     12  C   UNL     1      -0.893   1.255  -1.717  1.00  0.00    -0.017 A 
ATOM     13  C   UNL     1      -2.270   1.381  -1.978  1.00  0.00    +0.012 A 
ATOM     14  C   UNL     1      -3.211   0.673  -1.237  1.00  0.00    +0.048 A 
ENDROOT
BRANCH   1  15
ATOM     15  O   UNL     1      -3.665  -0.930   0.532  1.00  0.00    -0.427 OA
BRANCH  15  16
ATOM     16  C   UNL     1      -4.606  -0.225   1.276  1.00  0.00    +0.308 C 
ATOM     17  O   UNL     1      -4.733   0.989   1.347  1.00  0.00    -0.252 OA
ATOM     18  C   UNL     1      -5.472  -1.209   2.007  1.00  0.00    +0.139 C 
ENDBRANCH  15  16
ENDBRANCH   1  15
BRANCH   6  19
ATOM     19  C   UNL     1       3.478  -1.518   1.819  1.00  0.00    +0.159 C 
ATOM     20  O   UNL     1       2.693  -2.190   2.485  1.00  0.00    -0.295 OA
ATOM     21  C   UNL     1       4.963  -1.587   2.065  1.00  0.00    +0.093 C 
ENDBRANCH   6  19
TORSDOF 3
