MODEL 1
REMARK VINA RESULT:   -10.589      0.000      0.000
REMARK INTER + INTRA:         -10.589
REMARK INTER:                 -10.589
REMARK INTRA:                   0.000
REMARK UNBOUND:                 0.000
REMARK SMILES Cc1ccc2c(c1)C(=O)c1ccccc1C2=O
REMARK SMILES IDX 1 1 2 2 7 3 6 4 5 5 4 6 3 7 16 8 17 9 15 10 10 11 11 12
REMARK SMILES IDX 12 13 13 14 14 15 8 16 9 17
REMARK H PARENT
ROOT
ATOM      1  C   UNL     1     -26.711   4.488   8.800  1.00  0.00    +0.044 C 
ATOM      2  C   UNL     1     -26.577   5.816   8.111  1.00  0.00    -0.050 A 
ATOM      3  C   UNL     1     -27.683   6.669   7.998  1.00  0.00    +0.016 A 
ATOM      4  C   UNL     1     -27.553   7.922   7.384  1.00  0.00    +0.034 A 
ATOM      5  C   UNL     1     -26.316   8.330   6.890  1.00  0.00    +0.034 A 
ATOM      6  C   UNL     1     -25.205   7.489   7.013  1.00  0.00    +0.013 A 
ATOM      7  C   UNL     1     -25.335   6.240   7.624  1.00  0.00    +0.004 A 
ATOM      8  C   UNL     1     -26.167   9.648   6.241  1.00  0.00    +0.194 C 
ATOM      9  O   UNL     1     -25.078  10.007   5.807  1.00  0.00    -0.289 OA
ATOM     10  C   UNL     1     -27.347  10.529   6.122  1.00  0.00    +0.034 A 
ATOM     11  C   UNL     1     -28.583  10.122   6.618  1.00  0.00    +0.034 A 
ATOM     12  C   UNL     1     -29.696  10.966   6.500  1.00  0.00    +0.013 A 
ATOM     13  C   UNL     1     -29.565  12.214   5.887  1.00  0.00    +0.001 A 
ATOM     14  C   UNL     1     -28.327  12.621   5.392  1.00  0.00    +0.001 A 
ATOM     15  C   UNL     1     -27.217  11.782   5.508  1.00  0.00    +0.013 A 
ATOM     16  C   UNL     1     -28.732   8.804   7.268  1.00  0.00    +0.194 C 
ATOM     17  O   UNL     1     -29.820   8.447   7.705  1.00  0.00    -0.289 OA
ENDROOT
TORSDOF 0
ENDMDL
MODEL 2
REMARK VINA RESULT:   -10.477      0.762      2.758
REMARK INTER + INTRA:         -10.477
REMARK INTER:                 -10.477
REMARK INTRA:                   0.000
REMARK UNBOUND:                 0.000
REMARK SMILES Cc1ccc2c(c1)C(=O)c1ccccc1C2=O
REMARK SMILES IDX 1 1 2 2 7 3 6 4 5 5 4 6 3 7 16 8 17 9 15 10 10 11 11 12
REMARK SMILES IDX 12 13 13 14 14 15 8 16 9 17
REMARK H PARENT
ROOT
ATOM      1  C   UNL     1     -25.381   5.079   8.130  1.00  0.00    +0.044 C 
ATOM      2  C   UNL     1     -26.291   6.247   7.880  1.00  0.00    -0.050 A 
ATOM      3  C   UNL     1     -25.824   7.373   7.188  1.00  0.00    +0.016 A 
ATOM      4  C   UNL     1     -26.680   8.450   6.925  1.00  0.00    +0.034 A 
ATOM      5  C   UNL     1     -28.008   8.402   7.343  1.00  0.00    +0.034 A 
ATOM      6  C   UNL     1     -28.485   7.275   8.022  1.00  0.00    +0.013 A 
ATOM      7  C   UNL     1     -27.631   6.202   8.284  1.00  0.00    +0.004 A 
ATOM      8  C   UNL     1     -28.920   9.532   7.071  1.00  0.00    +0.194 C 
ATOM      9  O   UNL     1     -30.088   9.490   7.439  1.00  0.00    -0.289 OA
ATOM     10  C   UNL     1     -28.405  10.714   6.350  1.00  0.00    +0.034 A 
ATOM     11  C   UNL     1     -27.078  10.761   5.929  1.00  0.00    +0.034 A 
ATOM     12  C   UNL     1     -26.601  11.887   5.246  1.00  0.00    +0.013 A 
ATOM     13  C   UNL     1     -27.455  12.960   4.985  1.00  0.00    +0.001 A 
ATOM     14  C   UNL     1     -28.783  12.913   5.405  1.00  0.00    +0.001 A 
ATOM     15  C   UNL     1     -29.261  11.792   6.087  1.00  0.00    +0.013 A 
ATOM     16  C   UNL     1     -26.166   9.631   6.200  1.00  0.00    +0.194 C 
ATOM     17  O   UNL     1     -24.999   9.672   5.830  1.00  0.00    -0.289 OA
ENDROOT
TORSDOF 0
ENDMDL
MODEL 3
REMARK VINA RESULT:   -10.361      0.535      5.774
REMARK INTER + INTRA:         -10.361
REMARK INTER:                 -10.361
REMARK INTRA:                   0.000
REMARK UNBOUND:                 0.000
REMARK SMILES Cc1ccc2c(c1)C(=O)c1ccccc1C2=O
REMARK SMILES IDX 1 1 2 2 7 3 6 4 5 5 4 6 3 7 16 8 17 9 15 10 10 11 11 12
REMARK SMILES IDX 12 13 13 14 14 15 8 16 9 17
REMARK H PARENT
ROOT
ATOM      1  C   UNL     1     -28.271  13.600   5.066  1.00  0.00    +0.044 C 
ATOM      2  C   UNL     1     -28.370  12.225   5.661  1.00  0.00    -0.050 A 
ATOM      3  C   UNL     1     -27.238  11.402   5.733  1.00  0.00    +0.016 A 
ATOM      4  C   UNL     1     -27.320  10.130   6.316  1.00  0.00    +0.034 A 
ATOM      5  C   UNL     1     -28.531   9.681   6.837  1.00  0.00    +0.034 A 
ATOM      6  C   UNL     1     -29.662  10.503   6.781  1.00  0.00    +0.013 A 
ATOM      7  C   UNL     1     -29.580  11.770   6.199  1.00  0.00    +0.004 A 
ATOM      8  C   UNL     1     -28.631   8.343   7.454  1.00  0.00    +0.194 C 
ATOM      9  O   UNL     1     -29.696   7.948   7.913  1.00  0.00    -0.289 OA
ATOM     10  C   UNL     1     -27.428   7.486   7.512  1.00  0.00    +0.034 A 
ATOM     11  C   UNL     1     -26.216   7.936   6.993  1.00  0.00    +0.034 A 
ATOM     12  C   UNL     1     -25.083   7.116   7.053  1.00  0.00    +0.013 A 
ATOM     13  C   UNL     1     -25.166   5.849   7.633  1.00  0.00    +0.001 A 
ATOM     14  C   UNL     1     -26.379   5.399   8.154  1.00  0.00    +0.001 A 
ATOM     15  C   UNL     1     -27.511   6.214   8.094  1.00  0.00    +0.013 A 
ATOM     16  C   UNL     1     -26.117   9.275   6.377  1.00  0.00    +0.194 C 
ATOM     17  O   UNL     1     -25.051   9.671   5.921  1.00  0.00    -0.289 OA
ENDROOT
TORSDOF 0
ENDMDL
MODEL 4
REMARK VINA RESULT:    -9.137      1.847      2.779
REMARK INTER + INTRA:          -9.137
REMARK INTER:                  -9.137
REMARK INTRA:                   0.000
REMARK UNBOUND:                 0.000
REMARK SMILES Cc1ccc2c(c1)C(=O)c1ccccc1C2=O
REMARK SMILES IDX 1 1 2 2 7 3 6 4 5 5 4 6 3 7 16 8 17 9 15 10 10 11 11 12
REMARK SMILES IDX 12 13 13 14 14 15 8 16 9 17
REMARK H PARENT
ROOT
ATOM      1  C   UNL     1     -31.920   5.987   8.786  1.00  0.00    +0.044 C 
ATOM      2  C   UNL     1     -30.768   6.814   8.294  1.00  0.00    -0.050 A 
ATOM      3  C   UNL     1     -30.994   8.070   7.714  1.00  0.00    +0.016 A 
ATOM      4  C   UNL     1     -29.918   8.857   7.283  1.00  0.00    +0.034 A 
ATOM      5  C   UNL     1     -28.613   8.398   7.440  1.00  0.00    +0.034 A 
ATOM      6  C   UNL     1     -28.379   7.151   8.031  1.00  0.00    +0.013 A 
ATOM      7  C   UNL     1     -29.452   6.367   8.460  1.00  0.00    +0.004 A 
ATOM      8  C   UNL     1     -27.471   9.219   6.990  1.00  0.00    +0.194 C 
ATOM      9  O   UNL     1     -26.322   8.814   7.128  1.00  0.00    -0.289 OA
ATOM     10  C   UNL     1     -27.731  10.535   6.371  1.00  0.00    +0.034 A 
ATOM     11  C   UNL     1     -29.036  10.995   6.216  1.00  0.00    +0.034 A 
ATOM     12  C   UNL     1     -29.271  12.245   5.628  1.00  0.00    +0.013 A 
ATOM     13  C   UNL     1     -28.198  13.028   5.198  1.00  0.00    +0.001 A 
ATOM     14  C   UNL     1     -26.892  12.567   5.354  1.00  0.00    +0.001 A 
ATOM     15  C   UNL     1     -26.655  11.322   5.939  1.00  0.00    +0.013 A 
ATOM     16  C   UNL     1     -30.178  10.175   6.667  1.00  0.00    +0.194 C 
ATOM     17  O   UNL     1     -31.327  10.581   6.531  1.00  0.00    -0.289 OA
ENDROOT
TORSDOF 0
ENDMDL
MODEL 5
REMARK VINA RESULT:    -7.938      5.079      7.860
REMARK INTER + INTRA:          -7.938
REMARK INTER:                  -7.938
REMARK INTRA:                   0.000
REMARK UNBOUND:                 0.000
REMARK SMILES Cc1ccc2c(c1)C(=O)c1ccccc1C2=O
REMARK SMILES IDX 1 1 2 2 7 3 6 4 5 5 4 6 3 7 16 8 17 9 15 10 10 11 11 12
REMARK SMILES IDX 12 13 13 14 14 15 8 16 9 17
REMARK H PARENT
ROOT
ATOM      1  C   UNL     1     -29.020   9.382   6.949  1.00  0.00    +0.044 C 
ATOM      2  C   UNL     1     -30.271   8.573   7.139  1.00  0.00    -0.050 A 
ATOM      3  C   UNL     1     -30.228   7.356   7.833  1.00  0.00    +0.016 A 
ATOM      4  C   UNL     1     -31.399   6.615   8.039  1.00  0.00    +0.034 A 
ATOM      5  C   UNL     1     -32.618   7.092   7.561  1.00  0.00    +0.034 A 
ATOM      6  C   UNL     1     -32.670   8.313   6.880  1.00  0.00    +0.013 A 
ATOM      7  C   UNL     1     -31.502   9.051   6.674  1.00  0.00    +0.004 A 
ATOM      8  C   UNL     1     -33.859   6.319   7.773  1.00  0.00    +0.194 C 
ATOM      9  O   UNL     1     -34.931   6.739   7.353  1.00  0.00    -0.289 OA
ATOM     10  C   UNL     1     -33.791   5.034   8.498  1.00  0.00    +0.034 A 
ATOM     11  C   UNL     1     -32.573   4.558   8.978  1.00  0.00    +0.034 A 
ATOM     12  C   UNL     1     -32.520   3.339   9.665  1.00  0.00    +0.013 A 
ATOM     13  C   UNL     1     -33.688   2.600   9.869  1.00  0.00    +0.001 A 
ATOM     14  C   UNL     1     -34.907   3.077   9.389  1.00  0.00    +0.001 A 
ATOM     15  C   UNL     1     -34.962   4.292   8.704  1.00  0.00    +0.013 A 
ATOM     16  C   UNL     1     -31.332   5.331   8.767  1.00  0.00    +0.194 C 
ATOM     17  O   UNL     1     -30.261   4.913   9.190  1.00  0.00    -0.289 OA
ENDROOT
TORSDOF 0
ENDMDL
MODEL 6
REMARK VINA RESULT:    -7.869      8.874     10.524
REMARK INTER + INTRA:          -7.869
REMARK INTER:                  -7.869
REMARK INTRA:                   0.000
REMARK UNBOUND:                 0.000
REMARK SMILES Cc1ccc2c(c1)C(=O)c1ccccc1C2=O
REMARK SMILES IDX 1 1 2 2 7 3 6 4 5 5 4 6 3 7 16 8 17 9 15 10 10 11 11 12
REMARK SMILES IDX 12 13 13 14 14 15 8 16 9 17
REMARK H PARENT
ROOT
ATOM      1  C   UNL     1     -32.220  -0.255  10.922  1.00  0.00    +0.044 C 
ATOM      2  C   UNL     1     -32.943   0.987  10.488  1.00  0.00    -0.050 A 
ATOM      3  C   UNL     1     -34.322   1.114  10.700  1.00  0.00    +0.016 A 
ATOM      4  C   UNL     1     -34.994   2.285  10.324  1.00  0.00    +0.034 A 
ATOM      5  C   UNL     1     -34.288   3.336   9.745  1.00  0.00    +0.034 A 
ATOM      6  C   UNL     1     -32.908   3.222   9.543  1.00  0.00    +0.013 A 
ATOM      7  C   UNL     1     -32.239   2.054   9.917  1.00  0.00    +0.004 A 
ATOM      8  C   UNL     1     -34.984   4.576   9.345  1.00  0.00    +0.194 C 
ATOM      9  O   UNL     1     -34.363   5.501   8.835  1.00  0.00    -0.289 OA
ATOM     10  C   UNL     1     -36.441   4.686   9.568  1.00  0.00    +0.034 A 
ATOM     11  C   UNL     1     -37.146   3.635  10.150  1.00  0.00    +0.034 A 
ATOM     12  C   UNL     1     -38.527   3.751  10.357  1.00  0.00    +0.013 A 
ATOM     13  C   UNL     1     -39.195   4.918   9.982  1.00  0.00    +0.001 A 
ATOM     14  C   UNL     1     -38.488   5.970   9.400  1.00  0.00    +0.001 A 
ATOM     15  C   UNL     1     -37.112   5.857   9.192  1.00  0.00    +0.013 A 
ATOM     16  C   UNL     1     -36.450   2.396  10.551  1.00  0.00    +0.194 C 
ATOM     17  O   UNL     1     -37.070   1.473  11.063  1.00  0.00    -0.289 OA
ENDROOT
TORSDOF 0
ENDMDL
MODEL 7
REMARK VINA RESULT:    -7.719      7.950      9.852
REMARK INTER + INTRA:          -7.719
REMARK INTER:                  -7.719
REMARK INTRA:                   0.000
REMARK UNBOUND:                 0.000
REMARK SMILES Cc1ccc2c(c1)C(=O)c1ccccc1C2=O
REMARK SMILES IDX 1 1 2 2 7 3 6 4 5 5 4 6 3 7 16 8 17 9 15 10 10 11 11 12
REMARK SMILES IDX 12 13 13 14 14 15 8 16 9 17
REMARK H PARENT
ROOT
ATOM      1  C   UNL     1     -31.753   1.334  10.225  1.00  0.00    +0.044 C 
ATOM      2  C   UNL     1     -30.321   0.895  10.327  1.00  0.00    -0.050 A 
ATOM      3  C   UNL     1     -29.298   1.843  10.465  1.00  0.00    +0.016 A 
ATOM      4  C   UNL     1     -27.963   1.435  10.592  1.00  0.00    +0.034 A 
ATOM      5  C   UNL     1     -27.648   0.078  10.592  1.00  0.00    +0.034 A 
ATOM      6  C   UNL     1     -28.666  -0.874  10.469  1.00  0.00    +0.013 A 
ATOM      7  C   UNL     1     -29.995  -0.466  10.342  1.00  0.00    +0.004 A 
ATOM      8  C   UNL     1     -26.245  -0.365  10.726  1.00  0.00    +0.194 C 
ATOM      9  O   UNL     1     -25.968  -1.558  10.726  1.00  0.00    -0.289 OA
ATOM     10  C   UNL     1     -25.181   0.650  10.860  1.00  0.00    +0.034 A 
ATOM     11  C   UNL     1     -25.496   2.007  10.862  1.00  0.00    +0.034 A 
ATOM     12  C   UNL     1     -24.478   2.961  10.990  1.00  0.00    +0.013 A 
ATOM     13  C   UNL     1     -23.149   2.553  11.116  1.00  0.00    +0.001 A 
ATOM     14  C   UNL     1     -22.833   1.195  11.114  1.00  0.00    +0.001 A 
ATOM     15  C   UNL     1     -23.846   0.242  10.986  1.00  0.00    +0.013 A 
ATOM     16  C   UNL     1     -26.899   2.450  10.729  1.00  0.00    +0.194 C 
ATOM     17  O   UNL     1     -27.176   3.644  10.732  1.00  0.00    -0.289 OA
ENDROOT
TORSDOF 0
ENDMDL
MODEL 8
REMARK VINA RESULT:    -7.666      8.117      9.966
REMARK INTER + INTRA:          -7.666
REMARK INTER:                  -7.666
REMARK INTRA:                   0.000
REMARK UNBOUND:                 0.000
REMARK SMILES Cc1ccc2c(c1)C(=O)c1ccccc1C2=O
REMARK SMILES IDX 1 1 2 2 7 3 6 4 5 5 4 6 3 7 16 8 17 9 15 10 10 11 11 12
REMARK SMILES IDX 12 13 13 14 14 15 8 16 9 17
REMARK H PARENT
ROOT
ATOM      1  C   UNL     1     -38.894   2.294  11.427  1.00  0.00    +0.044 C 
ATOM      2  C   UNL     1     -37.983   3.217  10.671  1.00  0.00    -0.050 A 
ATOM      3  C   UNL     1     -36.592   3.080  10.774  1.00  0.00    +0.016 A 
ATOM      4  C   UNL     1     -35.739   3.920  10.044  1.00  0.00    +0.034 A 
ATOM      5  C   UNL     1     -36.274   4.892   9.202  1.00  0.00    +0.034 A 
ATOM      6  C   UNL     1     -37.662   5.025   9.084  1.00  0.00    +0.013 A 
ATOM      7  C   UNL     1     -38.511   4.188   9.812  1.00  0.00    +0.004 A 
ATOM      8  C   UNL     1     -35.386   5.783   8.428  1.00  0.00    +0.194 C 
ATOM      9  O   UNL     1     -35.857   6.638   7.688  1.00  0.00    -0.289 OA
ATOM     10  C   UNL     1     -33.923   5.629   8.558  1.00  0.00    +0.034 A 
ATOM     11  C   UNL     1     -33.388   4.655   9.399  1.00  0.00    +0.034 A 
ATOM     12  C   UNL     1     -31.999   4.518   9.514  1.00  0.00    +0.013 A 
ATOM     13  C   UNL     1     -31.150   5.356   8.787  1.00  0.00    +0.001 A 
ATOM     14  C   UNL     1     -31.686   6.330   7.946  1.00  0.00    +0.001 A 
ATOM     15  C   UNL     1     -33.070   6.469   7.830  1.00  0.00    +0.013 A 
ATOM     16  C   UNL     1     -34.276   3.764  10.172  1.00  0.00    +0.194 C 
ATOM     17  O   UNL     1     -33.805   2.907  10.910  1.00  0.00    -0.289 OA
ENDROOT
TORSDOF 0
ENDMDL
