MODEL 1
REMARK VINA RESULT:   -10.153      0.000      0.000
REMARK INTER + INTRA:         -12.926
REMARK INTER:                 -12.528
REMARK INTRA:                  -0.398
REMARK UNBOUND:                -0.398
REMARK SMILES Cn1ncc2c(Nc3ccccc3)nc(Nc3ccccc3)nc21
REMARK SMILES IDX 1 1 2 2 3 3 4 4 5 5 24 6 23 7 15 8 14 9 6 10 7 11 8 13 9 14
REMARK SMILES IDX 13 15 10 16 12 17 11 18 16 19 17 21 18 22 22 23 19 24 21 25
REMARK SMILES IDX 20 26
REMARK H PARENT 7 12 16 20
ROOT
ATOM      1  C   UNL     1     -27.532  12.080   5.388  1.00  0.00    +0.176 C 
ATOM      2  N   UNL     1     -26.924  10.854   5.842  1.00  0.00    -0.250 N 
ATOM      3  N   UNL     1     -25.590  10.679   5.694  1.00  0.00    -0.179 NA
ATOM      4  C   UNL     1     -25.383   9.462   6.208  1.00  0.00    +0.149 A 
ATOM      5  C   UNL     1     -26.565   8.860   6.687  1.00  0.00    +0.082 A 
ATOM      6  C   UNL     1     -27.552   9.792   6.432  1.00  0.00    +0.165 A 
ATOM      7  N   UNL     1     -28.857   9.671   6.711  1.00  0.00    -0.193 NA
ATOM      8  C   UNL     1     -29.161   8.510   7.315  1.00  0.00    +0.231 A 
ATOM      9  N   UNL     1     -28.275   7.533   7.595  1.00  0.00    -0.194 NA
ATOM     10  C   UNL     1     -26.958   7.660   7.290  1.00  0.00    +0.147 A 
ENDROOT
BRANCH  10  11
ATOM     11  N   UNL     1     -26.030   6.654   7.599  1.00  0.00    -0.339 N 
ATOM     12  H   UNL     1     -25.154   6.733   7.102  1.00  0.00    +0.168 HD
BRANCH  11  13
ATOM     13  C   UNL     1     -26.134   5.498   8.390  1.00  0.00    +0.040 A 
ATOM     14  C   UNL     1     -27.279   4.697   8.446  1.00  0.00    +0.026 A 
ATOM     15  C   UNL     1     -25.055   5.151   9.220  1.00  0.00    +0.026 A 
ATOM     16  C   UNL     1     -27.341   3.578   9.285  1.00  0.00    +0.002 A 
ATOM     17  C   UNL     1     -25.111   4.035  10.061  1.00  0.00    +0.002 A 
ATOM     18  C   UNL     1     -26.257   3.246  10.091  1.00  0.00    +0.000 A 
ENDBRANCH  11  13
ENDBRANCH  10  11
BRANCH   8  19
ATOM     19  N   UNL     1     -30.513   8.357   7.619  1.00  0.00    -0.324 N 
ATOM     20  H   UNL     1     -30.699   8.770   8.520  1.00  0.00    +0.170 HD
BRANCH  19  21
ATOM     21  C   UNL     1     -31.547   7.602   7.055  1.00  0.00    +0.041 A 
ATOM     22  C   UNL     1     -32.285   6.644   7.757  1.00  0.00    +0.026 A 
ATOM     23  C   UNL     1     -31.822   7.757   5.686  1.00  0.00    +0.026 A 
ATOM     24  C   UNL     1     -33.278   5.885   7.128  1.00  0.00    +0.002 A 
ATOM     25  C   UNL     1     -32.813   7.003   5.050  1.00  0.00    +0.002 A 
ATOM     26  C   UNL     1     -33.542   6.065   5.774  1.00  0.00    +0.000 A 
ENDBRANCH  19  21
ENDBRANCH   8  19
TORSDOF 4
ENDMDL
MODEL 2
REMARK VINA RESULT:    -9.871      1.225      6.135
REMARK INTER + INTRA:         -12.577
REMARK INTER:                 -11.968
REMARK INTRA:                  -0.609
REMARK UNBOUND:                -0.398
REMARK SMILES Cn1ncc2c(Nc3ccccc3)nc(Nc3ccccc3)nc21
REMARK SMILES IDX 1 1 2 2 3 3 4 4 5 5 24 6 23 7 15 8 14 9 6 10 7 11 8 13 9 14
REMARK SMILES IDX 13 15 10 16 12 17 11 18 16 19 17 21 18 22 22 23 19 24 21 25
REMARK SMILES IDX 20 26
REMARK H PARENT 7 12 16 20
ROOT
ATOM      1  C   UNL     1     -25.398   9.815   6.446  1.00  0.00    +0.176 C 
ATOM      2  N   UNL     1     -26.760   9.474   6.770  1.00  0.00    -0.250 N 
ATOM      3  N   UNL     1     -27.747  10.365   6.515  1.00  0.00    -0.179 NA
ATOM      4  C   UNL     1     -28.847   9.729   6.933  1.00  0.00    +0.149 A 
ATOM      5  C   UNL     1     -28.577   8.444   7.446  1.00  0.00    +0.082 A 
ATOM      6  C   UNL     1     -27.208   8.308   7.327  1.00  0.00    +0.165 A 
ATOM      7  N   UNL     1     -26.475   7.244   7.687  1.00  0.00    -0.193 NA
ATOM      8  C   UNL     1     -27.214   6.242   8.189  1.00  0.00    +0.231 A 
ATOM      9  N   UNL     1     -28.551   6.281   8.358  1.00  0.00    -0.194 NA
ATOM     10  C   UNL     1     -29.280   7.372   8.007  1.00  0.00    +0.147 A 
ENDROOT
BRANCH  10  11
ATOM     11  N   UNL     1     -30.674   7.408   8.162  1.00  0.00    -0.339 N 
ATOM     12  H   UNL     1     -30.981   7.648   9.094  1.00  0.00    +0.168 HD
BRANCH  11  13
ATOM     13  C   UNL     1     -31.720   7.068   7.288  1.00  0.00    +0.040 A 
ATOM     14  C   UNL     1     -32.720   6.141   7.597  1.00  0.00    +0.026 A 
ATOM     15  C   UNL     1     -31.739   7.643   6.006  1.00  0.00    +0.026 A 
ATOM     16  C   UNL     1     -33.715   5.810   6.670  1.00  0.00    +0.002 A 
ATOM     17  C   UNL     1     -32.730   7.317   5.075  1.00  0.00    +0.002 A 
ATOM     18  C   UNL     1     -33.721   6.400   5.410  1.00  0.00    +0.000 A 
ENDBRANCH  11  13
ENDBRANCH  10  11
BRANCH   8  19
ATOM     19  N   UNL     1     -26.479   5.121   8.571  1.00  0.00    -0.324 N 
ATOM     20  H   UNL     1     -25.887   4.835   7.805  1.00  0.00    +0.170 HD
BRANCH  19  21
ATOM     21  C   UNL     1     -26.555   4.244   9.658  1.00  0.00    +0.041 A 
ATOM     22  C   UNL     1     -27.573   3.301   9.830  1.00  0.00    +0.026 A 
ATOM     23  C   UNL     1     -25.595   4.355  10.679  1.00  0.00    +0.026 A 
ATOM     24  C   UNL     1     -27.622   2.482  10.963  1.00  0.00    +0.002 A 
ATOM     25  C   UNL     1     -25.638   3.540  11.813  1.00  0.00    +0.002 A 
ATOM     26  C   UNL     1     -26.654   2.600  11.955  1.00  0.00    +0.000 A 
ENDBRANCH  19  21
ENDBRANCH   8  19
TORSDOF 4
ENDMDL
MODEL 3
REMARK VINA RESULT:    -9.429      5.532      9.630
REMARK INTER + INTRA:         -12.032
REMARK INTER:                 -11.323
REMARK INTRA:                  -0.709
REMARK UNBOUND:                -0.398
REMARK SMILES Cn1ncc2c(Nc3ccccc3)nc(Nc3ccccc3)nc21
REMARK SMILES IDX 1 1 2 2 3 3 4 4 5 5 24 6 23 7 15 8 14 9 6 10 7 11 8 13 9 14
REMARK SMILES IDX 13 15 10 16 12 17 11 18 16 19 17 21 18 22 22 23 19 24 21 25
REMARK SMILES IDX 20 26
REMARK H PARENT 7 12 16 20
ROOT
ATOM      1  C   UNL     1     -38.401   3.213  11.049  1.00  0.00    +0.176 C 
ATOM      2  N   UNL     1     -37.338   4.037  10.531  1.00  0.00    -0.250 N 
ATOM      3  N   UNL     1     -37.545   5.364  10.368  1.00  0.00    -0.179 NA
ATOM      4  C   UNL     1     -36.378   5.798   9.881  1.00  0.00    +0.149 A 
ATOM      5  C   UNL     1     -35.426   4.767   9.735  1.00  0.00    +0.082 A 
ATOM      6  C   UNL     1     -36.084   3.631  10.166  1.00  0.00    +0.165 A 
ATOM      7  N   UNL     1     -35.585   2.388  10.214  1.00  0.00    -0.193 NA
ATOM      8  C   UNL     1     -34.308   2.317   9.804  1.00  0.00    +0.231 A 
ATOM      9  N   UNL     1     -33.585   3.362   9.354  1.00  0.00    -0.194 NA
ATOM     10  C   UNL     1     -34.108   4.615   9.293  1.00  0.00    +0.147 A 
ENDROOT
BRANCH  10  11
ATOM     11  N   UNL     1     -33.352   5.708   8.844  1.00  0.00    -0.339 N 
ATOM     12  H   UNL     1     -32.935   6.255   9.584  1.00  0.00    +0.168 HD
BRANCH  11  13
ATOM     13  C   UNL     1     -33.157   6.245   7.561  1.00  0.00    +0.040 A 
ATOM     14  C   UNL     1     -33.923   5.890   6.446  1.00  0.00    +0.026 A 
ATOM     15  C   UNL     1     -32.097   7.146   7.362  1.00  0.00    +0.026 A 
ATOM     16  C   UNL     1     -33.657   6.427   5.182  1.00  0.00    +0.002 A 
ATOM     17  C   UNL     1     -31.825   7.685   6.101  1.00  0.00    +0.002 A 
ATOM     18  C   UNL     1     -32.609   7.326   5.009  1.00  0.00    +0.000 A 
ENDBRANCH  11  13
ENDBRANCH  10  11
BRANCH   8  19
ATOM     19  N   UNL     1     -33.761   1.036   9.844  1.00  0.00    -0.324 N 
ATOM     20  H   UNL     1     -34.397   0.390   9.401  1.00  0.00    +0.170 HD
BRANCH  19  21
ATOM     21  C   UNL     1     -32.677   0.472  10.525  1.00  0.00    +0.041 A 
ATOM     22  C   UNL     1     -32.367   0.745  11.861  1.00  0.00    +0.026 A 
ATOM     23  C   UNL     1     -31.801  -0.366   9.814  1.00  0.00    +0.026 A 
ATOM     24  C   UNL     1     -31.240   0.187  12.475  1.00  0.00    +0.002 A 
ATOM     25  C   UNL     1     -30.674  -0.928  10.422  1.00  0.00    +0.002 A 
ATOM     26  C   UNL     1     -30.394  -0.651  11.755  1.00  0.00    +0.000 A 
ENDBRANCH  19  21
ENDBRANCH   8  19
TORSDOF 4
ENDMDL
MODEL 4
REMARK VINA RESULT:    -8.965      2.125      6.592
REMARK INTER + INTRA:         -11.459
REMARK INTER:                 -11.039
REMARK INTRA:                  -0.420
REMARK UNBOUND:                -0.398
REMARK SMILES Cn1ncc2c(Nc3ccccc3)nc(Nc3ccccc3)nc21
REMARK SMILES IDX 1 1 2 2 3 3 4 4 5 5 24 6 23 7 15 8 14 9 6 10 7 11 8 13 9 14
REMARK SMILES IDX 13 15 10 16 12 17 11 18 16 19 17 21 18 22 22 23 19 24 21 25
REMARK SMILES IDX 20 26
REMARK H PARENT 7 12 16 20
ROOT
ATOM      1  C   UNL     1     -23.891   7.924   6.207  1.00  0.00    +0.176 C 
ATOM      2  N   UNL     1     -25.311   8.169   6.195  1.00  0.00    -0.250 N 
ATOM      3  N   UNL     1     -25.822   9.066   5.320  1.00  0.00    -0.179 NA
ATOM      4  C   UNL     1     -27.133   9.039   5.586  1.00  0.00    +0.149 A 
ATOM      5  C   UNL     1     -27.466   8.133   6.614  1.00  0.00    +0.082 A 
ATOM      6  C   UNL     1     -26.256   7.584   6.991  1.00  0.00    +0.165 A 
ATOM      7  N   UNL     1     -26.059   6.662   7.945  1.00  0.00    -0.193 NA
ATOM      8  C   UNL     1     -27.196   6.267   8.539  1.00  0.00    +0.231 A 
ATOM      9  N   UNL     1     -28.422   6.751   8.253  1.00  0.00    -0.194 NA
ATOM     10  C   UNL     1     -28.607   7.698   7.297  1.00  0.00    +0.147 A 
ENDROOT
BRANCH  10  11
ATOM     11  N   UNL     1     -29.883   8.188   6.982  1.00  0.00    -0.339 N 
ATOM     12  H   UNL     1     -30.422   7.583   6.379  1.00  0.00    +0.168 HD
BRANCH  11  13
ATOM     13  C   UNL     1     -30.508   9.415   7.263  1.00  0.00    +0.040 A 
ATOM     14  C   UNL     1     -31.798   9.526   7.789  1.00  0.00    +0.026 A 
ATOM     15  C   UNL     1     -29.828  10.604   6.947  1.00  0.00    +0.026 A 
ATOM     16  C   UNL     1     -32.386  10.777   8.012  1.00  0.00    +0.002 A 
ATOM     17  C   UNL     1     -30.410  11.856   7.167  1.00  0.00    +0.002 A 
ATOM     18  C   UNL     1     -31.691  11.942   7.702  1.00  0.00    +0.000 A 
ENDBRANCH  11  13
ENDBRANCH  10  11
BRANCH   8  19
ATOM     19  N   UNL     1     -27.022   5.309   9.535  1.00  0.00    -0.324 N 
ATOM     20  H   UNL     1     -27.450   5.635  10.389  1.00  0.00    +0.170 HD
BRANCH  19  21
ATOM     21  C   UNL     1     -26.234   4.156   9.636  1.00  0.00    +0.041 A 
ATOM     22  C   UNL     1     -26.621   2.902   9.153  1.00  0.00    +0.026 A 
ATOM     23  C   UNL     1     -25.012   4.238  10.324  1.00  0.00    +0.026 A 
ATOM     24  C   UNL     1     -25.811   1.775   9.325  1.00  0.00    +0.002 A 
ATOM     25  C   UNL     1     -24.197   3.116  10.499  1.00  0.00    +0.002 A 
ATOM     26  C   UNL     1     -24.598   1.882   9.998  1.00  0.00    +0.000 A 
ENDBRANCH  19  21
ENDBRANCH   8  19
TORSDOF 4
ENDMDL
