REMARK SMILES CCc1nc(Nc2ccccc2Cl)c2cnn(-c3ccccc3)c2n1
REMARK SMILES IDX 3 1 4 2 5 3 14 4 15 5 16 6 17 7 24 8 25 9 2 10 1 11 6 12
REMARK SMILES IDX 7 14 12 15 8 16 11 17 9 18 10 19 13 20 18 21 19 22 23 23
REMARK SMILES IDX 20 24 22 25 21 26
REMARK H PARENT 6 13
ROOT
ATOM      1  C   UNL     1       0.133   1.496   0.455  1.00  0.00    +0.133 A 
ATOM      2  N   UNL     1       1.212   0.800   0.039  1.00  0.00    -0.215 NA
ATOM      3  C   UNL     1       1.123  -0.534  -0.180  1.00  0.00    +0.145 A 
ATOM      4  C   UNL     1      -0.129  -1.131   0.042  1.00  0.00    +0.082 A 
ATOM      5  C   UNL     1      -0.684  -2.417  -0.045  1.00  0.00    +0.150 A 
ATOM      6  N   UNL     1      -1.972  -2.455   0.286  1.00  0.00    -0.174 NA
ATOM      7  N   UNL     1      -2.288  -1.160   0.602  1.00  0.00    -0.215 N 
ATOM      8  C   UNL     1      -1.176  -0.327   0.463  1.00  0.00    +0.168 A 
ATOM      9  N   UNL     1      -1.093   1.000   0.681  1.00  0.00    -0.213 NA
ENDROOT
BRANCH   1  10
ATOM     10  C   UNL     1       0.317   2.977   0.650  1.00  0.00    +0.074 C 
ATOM     11  C   UNL     1       0.036   3.740  -0.634  1.00  0.00    +0.012 C 
ENDBRANCH   1  10
BRANCH   3  12
ATOM     12  N   UNL     1       2.221  -1.289  -0.606  1.00  0.00    -0.338 N 
ATOM     13  H   UNL     1       2.033  -2.279  -0.716  1.00  0.00    +0.168 HD
BRANCH  12  14
ATOM     14  C   UNL     1       3.559  -0.964  -0.917  1.00  0.00    +0.058 A 
ATOM     15  C   UNL     1       4.450  -1.992  -1.301  1.00  0.00    +0.064 A 
ATOM     16  C   UNL     1       4.069   0.338  -0.867  1.00  0.00    +0.027 A 
ATOM     17  C   UNL     1       5.786  -1.727  -1.618  1.00  0.00    +0.023 A 
ATOM     18  C   UNL     1       5.407   0.608  -1.185  1.00  0.00    +0.002 A 
ATOM     19  C   UNL     1       6.264  -0.422  -1.560  1.00  0.00    +0.002 A 
ATOM     20 Cl   UNL     1       3.905  -3.636  -1.391  1.00  0.00    -0.082 Cl
ENDBRANCH  12  14
ENDBRANCH   3  12
BRANCH   7  21
ATOM     21  C   UNL     1      -3.621  -0.839   1.008  1.00  0.00    +0.067 A 
ATOM     22  C   UNL     1      -4.002   0.466   1.345  1.00  0.00    +0.028 A 
ATOM     23  C   UNL     1      -4.581  -1.864   1.072  1.00  0.00    +0.028 A 
ATOM     24  C   UNL     1      -5.318   0.737   1.737  1.00  0.00    +0.002 A 
ATOM     25  C   UNL     1      -5.893  -1.587   1.464  1.00  0.00    +0.002 A 
ATOM     26  C   UNL     1      -6.261  -0.286   1.797  1.00  0.00    +0.000 A 
ENDBRANCH   7  21
TORSDOF 4
