MODEL 1
REMARK VINA RESULT:   -11.958      0.000      0.000
REMARK INTER + INTRA:         -16.694
REMARK INTER:                 -16.152
REMARK INTRA:                  -0.542
REMARK UNBOUND:                -0.542
REMARK SMILES O=S(=O)(O)c1cc(O)c2ccc(Nc3ccc4c(O)cc(S(=O)(=O)O)cc4c3)cc2c1
REMARK SMILES IDX 13 1 12 3 7 4 9 5 6 6 10 7 30 8 5 9 11 10 29 11 31 12 8 13
REMARK SMILES IDX 2 15 1 16 3 17 4 18 14 20 28 21 15 22 27 23 16 24 26 25
REMARK SMILES IDX 17 26 21 27 18 28 20 29 22 30 23 31 24 32 25 33 19 35
REMARK H PARENT 13 2 8 14 4 19 25 34 19 36
ROOT
ATOM      1  N   UNL     1     -27.232   4.977   8.866  1.00  0.00    -0.355 N 
ATOM      2  H   UNL     1     -28.197   4.728   9.056  1.00  0.00    +0.167 HD
ENDROOT
BRANCH   1   3
ATOM      3  C   UNL     1     -27.084   6.138   8.089  1.00  0.00    +0.039 A 
ATOM      4  C   UNL     1     -26.811   9.779   5.868  1.00  0.00    +0.124 A 
ATOM      5  C   UNL     1     -26.856   8.565   6.596  1.00  0.00    +0.024 A 
ATOM      6  C   UNL     1     -27.855  10.700   5.908  1.00  0.00    +0.069 A 
ATOM      7  C   UNL     1     -25.812   7.614   6.631  1.00  0.00    +0.015 A 
ATOM      8  C   UNL     1     -28.021   8.286   7.352  1.00  0.00    -0.011 A 
ATOM      9  C   UNL     1     -28.980  10.412   6.672  1.00  0.00    +0.098 A 
ATOM     10  C   UNL     1     -25.928   6.428   7.367  1.00  0.00    +0.027 A 
ATOM     11  C   UNL     1     -28.117   7.084   8.078  1.00  0.00    +0.035 A 
ATOM     12  C   UNL     1     -29.075   9.213   7.381  1.00  0.00    +0.032 A 
BRANCH   4  13
ATOM     13  O   UNL     1     -25.755  10.140   5.073  1.00  0.00    -0.507 OA
ATOM     14  H   UNL     1     -25.920   9.835   4.167  1.00  0.00    +0.293 HD
ENDBRANCH   4  13
BRANCH   9  15
ATOM     15  S   UNL     1     -30.319  11.563   6.712  1.00  0.00    +0.294 S 
ATOM     16  O   UNL     1     -30.051  12.587   5.727  1.00  0.00    -0.194 OA
ATOM     17  O   UNL     1     -30.597  11.894   8.093  1.00  0.00    -0.194 OA
BRANCH  15  18
ATOM     18  O   UNL     1     -31.595  10.742   6.164  1.00  0.00    -0.282 OA
ATOM     19  H   UNL     1     -32.018  10.303   6.931  1.00  0.00    +0.234 HD
ENDBRANCH  15  18
ENDBRANCH   9  15
ENDBRANCH   1   3
BRANCH   1  20
ATOM     20  C   UNL     1     -26.292   4.092   9.421  1.00  0.00    +0.039 A 
ATOM     21  C   UNL     1     -26.453   2.714   9.223  1.00  0.00    +0.035 A 
ATOM     22  C   UNL     1     -25.164   4.521  10.118  1.00  0.00    +0.027 A 
ATOM     23  C   UNL     1     -25.531   1.775   9.722  1.00  0.00    -0.011 A 
ATOM     24  C   UNL     1     -24.235   3.605  10.627  1.00  0.00    +0.015 A 
ATOM     25  C   UNL     1     -25.727   0.405   9.491  1.00  0.00    +0.032 A 
ATOM     26  C   UNL     1     -24.399   2.215  10.451  1.00  0.00    +0.024 A 
ATOM     27  C   UNL     1     -24.809  -0.530   9.974  1.00  0.00    +0.098 A 
ATOM     28  C   UNL     1     -23.504   1.232  10.945  1.00  0.00    +0.124 A 
ATOM     29  C   UNL     1     -23.697  -0.126  10.704  1.00  0.00    +0.069 A 
BRANCH  27  30
ATOM     30  S   UNL     1     -25.096  -2.250   9.693  1.00  0.00    +0.294 S 
ATOM     31  O   UNL     1     -23.835  -2.937   9.843  1.00  0.00    -0.194 OA
ATOM     32  O   UNL     1     -26.282  -2.642  10.423  1.00  0.00    -0.194 OA
BRANCH  30  33
ATOM     33  O   UNL     1     -25.526  -2.338   8.140  1.00  0.00    -0.282 OA
ATOM     34  H   UNL     1     -26.491  -2.514   8.117  1.00  0.00    +0.234 HD
ENDBRANCH  30  33
ENDBRANCH  27  30
BRANCH  28  35
ATOM     35  O   UNL     1     -22.397   1.532  11.693  1.00  0.00    -0.507 OA
ATOM     36  H   UNL     1     -21.699   0.886  11.506  1.00  0.00    +0.293 HD
ENDBRANCH  28  35
ENDBRANCH   1  20
TORSDOF 8
ENDMDL
MODEL 2
REMARK VINA RESULT:   -11.904      0.187     10.801
REMARK INTER + INTRA:         -16.622
REMARK INTER:                 -16.139
REMARK INTRA:                  -0.483
REMARK UNBOUND:                -0.542
REMARK SMILES O=S(=O)(O)c1cc(O)c2ccc(Nc3ccc4c(O)cc(S(=O)(=O)O)cc4c3)cc2c1
REMARK SMILES IDX 13 1 12 3 7 4 9 5 6 6 10 7 30 8 5 9 11 10 29 11 31 12 8 13
REMARK SMILES IDX 2 15 1 16 3 17 4 18 14 20 28 21 15 22 27 23 16 24 26 25
REMARK SMILES IDX 17 26 21 27 18 28 20 29 22 30 23 31 24 32 25 33 19 35
REMARK H PARENT 13 2 8 14 4 19 25 34 19 36
ROOT
ATOM      1  N   UNL     1     -27.194   5.123   8.851  1.00  0.00    -0.355 N 
ATOM      2  H   UNL     1     -28.160   4.889   9.054  1.00  0.00    +0.167 HD
ENDROOT
BRANCH   1   3
ATOM      3  C   UNL     1     -26.263   4.216   9.385  1.00  0.00    +0.039 A 
ATOM      4  C   UNL     1     -23.523   1.285  10.856  1.00  0.00    +0.124 A 
ATOM      5  C   UNL     1     -24.399   2.290  10.377  1.00  0.00    +0.024 A 
ATOM      6  C   UNL     1     -23.781  -0.070  10.662  1.00  0.00    +0.069 A 
ATOM      7  C   UNL     1     -24.170   3.678  10.502  1.00  0.00    +0.015 A 
ATOM      8  C   UNL     1     -25.582   1.879   9.716  1.00  0.00    -0.011 A 
ATOM      9  C   UNL     1     -24.940  -0.447   9.993  1.00  0.00    +0.098 A 
ATOM     10  C   UNL     1     -25.085   4.617  10.011  1.00  0.00    +0.027 A 
ATOM     11  C   UNL     1     -26.491   2.842   9.237  1.00  0.00    +0.035 A 
ATOM     12  C   UNL     1     -25.843   0.512   9.531  1.00  0.00    +0.032 A 
BRANCH   4  13
ATOM     13  O   UNL     1     -22.369   1.559  11.543  1.00  0.00    -0.507 OA
ATOM     14  H   UNL     1     -22.498   1.346  12.480  1.00  0.00    +0.293 HD
ENDBRANCH   4  13
BRANCH   9  15
ATOM     15  S   UNL     1     -25.288  -2.163   9.763  1.00  0.00    +0.294 S 
ATOM     16  O   UNL     1     -25.433  -2.398   8.344  1.00  0.00    -0.194 OA
ATOM     17  O   UNL     1     -26.316  -2.552  10.705  1.00  0.00    -0.194 OA
BRANCH  15  18
ATOM     18  O   UNL     1     -23.938  -2.929  10.204  1.00  0.00    -0.282 OA
ATOM     19  H   UNL     1     -23.514  -2.400  10.911  1.00  0.00    +0.234 HD
ENDBRANCH  15  18
ENDBRANCH   9  15
ENDBRANCH   1   3
BRANCH   1  20
ATOM     20  C   UNL     1     -27.035   6.296   8.095  1.00  0.00    +0.039 A 
ATOM     21  C   UNL     1     -28.083   7.226   8.051  1.00  0.00    +0.035 A 
ATOM     22  C   UNL     1     -25.855   6.614   7.425  1.00  0.00    +0.027 A 
ATOM     23  C   UNL     1     -27.978   8.436   7.341  1.00  0.00    -0.011 A 
ATOM     24  C   UNL     1     -25.729   7.812   6.709  1.00  0.00    +0.015 A 
ATOM     25  C   UNL     1     -29.049   9.343   7.333  1.00  0.00    +0.032 A 
ATOM     26  C   UNL     1     -26.785   8.744   6.642  1.00  0.00    +0.024 A 
ATOM     27  C   UNL     1     -28.945  10.551   6.639  1.00  0.00    +0.098 A 
ATOM     28  C   UNL     1     -26.729   9.970   5.931  1.00  0.00    +0.124 A 
ATOM     29  C   UNL     1     -27.791  10.871   5.933  1.00  0.00    +0.069 A 
BRANCH  27  30
ATOM     30  S   UNL     1     -30.320  11.660   6.623  1.00  0.00    +0.294 S 
ATOM     31  O   UNL     1     -30.555  12.089   7.981  1.00  0.00    -0.194 OA
ATOM     32  O   UNL     1     -30.139  12.598   5.537  1.00  0.00    -0.194 OA
BRANCH  30  33
ATOM     33  O   UNL     1     -31.570  10.746   6.168  1.00  0.00    -0.282 OA
ATOM     34  H   UNL     1     -31.229  10.091   5.522  1.00  0.00    +0.234 HD
ENDBRANCH  30  33
ENDBRANCH  27  30
BRANCH  28  35
ATOM     35  O   UNL     1     -25.646  10.360   5.188  1.00  0.00    -0.507 OA
ATOM     36  H   UNL     1     -25.250   9.582   4.765  1.00  0.00    +0.293 HD
ENDBRANCH  28  35
ENDBRANCH   1  20
TORSDOF 8
ENDMDL
MODEL 3
REMARK VINA RESULT:   -11.498      6.326      8.843
REMARK INTER + INTRA:         -16.073
REMARK INTER:                 -15.454
REMARK INTRA:                  -0.619
REMARK UNBOUND:                -0.542
REMARK SMILES O=S(=O)(O)c1cc(O)c2ccc(Nc3ccc4c(O)cc(S(=O)(=O)O)cc4c3)cc2c1
REMARK SMILES IDX 13 1 12 3 7 4 9 5 6 6 10 7 30 8 5 9 11 10 29 11 31 12 8 13
REMARK SMILES IDX 2 15 1 16 3 17 4 18 14 20 28 21 15 22 27 23 16 24 26 25
REMARK SMILES IDX 17 26 21 27 18 28 20 29 22 30 23 31 24 32 25 33 19 35
REMARK H PARENT 13 2 8 14 4 19 25 34 19 36
ROOT
ATOM      1  N   UNL     1     -32.359   9.097   7.002  1.00  0.00    -0.355 N 
ATOM      2  H   UNL     1     -33.021   9.765   7.383  1.00  0.00    +0.167 HD
ENDROOT
BRANCH   1   3
ATOM      3  C   UNL     1     -31.082   9.633   6.764  1.00  0.00    +0.039 A 
ATOM      4  C   UNL     1     -27.115  11.032   6.006  1.00  0.00    +0.124 A 
ATOM      5  C   UNL     1     -28.447  10.608   6.238  1.00  0.00    +0.024 A 
ATOM      6  C   UNL     1     -26.034  10.164   6.136  1.00  0.00    +0.069 A 
ATOM      7  C   UNL     1     -29.587  11.427   6.079  1.00  0.00    +0.015 A 
ATOM      8  C   UNL     1     -28.656   9.268   6.647  1.00  0.00    -0.011 A 
ATOM      9  C   UNL     1     -26.266   8.848   6.520  1.00  0.00    +0.098 A 
ATOM     10  C   UNL     1     -30.876  10.943   6.335  1.00  0.00    +0.027 A 
ATOM     11  C   UNL     1     -29.960   8.807   6.905  1.00  0.00    +0.035 A 
ATOM     12  C   UNL     1     -27.561   8.400   6.786  1.00  0.00    +0.032 A 
BRANCH   4  13
ATOM     13  O   UNL     1     -26.786  12.312   5.645  1.00  0.00    -0.507 OA
ATOM     14  H   UNL     1     -26.010  12.289   5.064  1.00  0.00    +0.293 HD
ENDBRANCH   4  13
BRANCH   9  15
ATOM     15  S   UNL     1     -24.900   7.746   6.710  1.00  0.00    +0.294 S 
ATOM     16  O   UNL     1     -23.890   8.122   5.746  1.00  0.00    -0.194 OA
ATOM     17  O   UNL     1     -25.410   6.394   6.785  1.00  0.00    -0.194 OA
BRANCH  15  18
ATOM     18  O   UNL     1     -24.280   8.090   8.160  1.00  0.00    -0.282 OA
ATOM     19  H   UNL     1     -23.753   8.912   8.070  1.00  0.00    +0.234 HD
ENDBRANCH  15  18
ENDBRANCH   9  15
ENDBRANCH   1   3
BRANCH   1  20
ATOM     20  C   UNL     1     -32.890   7.812   6.805  1.00  0.00    +0.039 A 
ATOM     21  C   UNL     1     -33.664   7.232   7.819  1.00  0.00    +0.035 A 
ATOM     22  C   UNL     1     -32.732   7.099   5.618  1.00  0.00    +0.027 A 
ATOM     23  C   UNL     1     -34.254   5.962   7.674  1.00  0.00    -0.011 A 
ATOM     24  C   UNL     1     -33.307   5.832   5.453  1.00  0.00    +0.015 A 
ATOM     25  C   UNL     1     -35.030   5.423   8.712  1.00  0.00    +0.032 A 
ATOM     26  C   UNL     1     -34.071   5.230   6.475  1.00  0.00    +0.024 A 
ATOM     27  C   UNL     1     -35.627   4.169   8.568  1.00  0.00    +0.098 A 
ATOM     28  C   UNL     1     -34.674   3.951   6.379  1.00  0.00    +0.124 A 
ATOM     29  C   UNL     1     -35.452   3.425   7.408  1.00  0.00    +0.069 A 
BRANCH  27  30
ATOM     30  S   UNL     1     -36.575   3.504   9.902  1.00  0.00    +0.294 S 
ATOM     31  O   UNL     1     -36.238   2.106  10.027  1.00  0.00    -0.194 OA
ATOM     32  O   UNL     1     -36.499   4.420  11.020  1.00  0.00    -0.194 OA
BRANCH  30  33
ATOM     33  O   UNL     1     -38.105   3.602   9.398  1.00  0.00    -0.282 OA
ATOM     34  H   UNL     1     -38.080   3.795   8.436  1.00  0.00    +0.234 HD
ENDBRANCH  30  33
ENDBRANCH  27  30
BRANCH  28  35
ATOM     35  O   UNL     1     -34.538   3.136   5.286  1.00  0.00    -0.507 OA
ATOM     36  H   UNL     1     -35.053   3.498   4.550  1.00  0.00    +0.293 HD
ENDBRANCH  28  35
ENDBRANCH   1  20
TORSDOF 8
ENDMDL
MODEL 4
REMARK VINA RESULT:   -11.498      6.359      9.639
REMARK INTER + INTRA:         -16.073
REMARK INTER:                 -15.470
REMARK INTRA:                  -0.602
REMARK UNBOUND:                -0.542
REMARK SMILES O=S(=O)(O)c1cc(O)c2ccc(Nc3ccc4c(O)cc(S(=O)(=O)O)cc4c3)cc2c1
REMARK SMILES IDX 13 1 12 3 7 4 9 5 6 6 10 7 30 8 5 9 11 10 29 11 31 12 8 13
REMARK SMILES IDX 2 15 1 16 3 17 4 18 14 20 28 21 15 22 27 23 16 24 26 25
REMARK SMILES IDX 17 26 21 27 18 28 20 29 22 30 23 31 24 32 25 33 19 35
REMARK H PARENT 13 2 8 14 4 19 25 34 19 36
ROOT
ATOM      1  N   UNL     1     -32.379   9.113   7.001  1.00  0.00    -0.355 N 
ATOM      2  H   UNL     1     -33.042   9.773   7.395  1.00  0.00    +0.167 HD
ENDROOT
BRANCH   1   3
ATOM      3  C   UNL     1     -32.906   7.825   6.805  1.00  0.00    +0.039 A 
ATOM      4  C   UNL     1     -34.679   3.960   6.381  1.00  0.00    +0.124 A 
ATOM      5  C   UNL     1     -34.079   5.240   6.476  1.00  0.00    +0.024 A 
ATOM      6  C   UNL     1     -35.496   3.454   7.389  1.00  0.00    +0.069 A 
ATOM      7  C   UNL     1     -33.280   5.826   5.470  1.00  0.00    +0.015 A 
ATOM      8  C   UNL     1     -34.303   5.993   7.655  1.00  0.00    -0.011 A 
ATOM      9  C   UNL     1     -35.716   4.220   8.529  1.00  0.00    +0.098 A 
ATOM     10  C   UNL     1     -32.710   7.094   5.635  1.00  0.00    +0.027 A 
ATOM     11  C   UNL     1     -33.714   7.262   7.801  1.00  0.00    +0.035 A 
ATOM     12  C   UNL     1     -35.119   5.474   8.673  1.00  0.00    +0.032 A 
BRANCH   4  13
ATOM     13  O   UNL     1     -34.504   3.126   5.309  1.00  0.00    -0.507 OA
ATOM     14  H   UNL     1     -34.461   2.209   5.622  1.00  0.00    +0.293 HD
ENDBRANCH   4  13
BRANCH   9  15
ATOM     15  S   UNL     1     -36.732   3.577   9.823  1.00  0.00    +0.294 S 
ATOM     16  O   UNL     1     -36.517   4.391  10.999  1.00  0.00    -0.194 OA
ATOM     17  O   UNL     1     -36.574   2.139   9.856  1.00  0.00    -0.194 OA
BRANCH  15  18
ATOM     18  O   UNL     1     -38.247   3.869   9.352  1.00  0.00    -0.282 OA
ATOM     19  H   UNL     1     -38.252   4.728   8.881  1.00  0.00    +0.234 HD
ENDBRANCH  15  18
ENDBRANCH   9  15
ENDBRANCH   1   3
BRANCH   1  20
ATOM     20  C   UNL     1     -31.105   9.654   6.759  1.00  0.00    +0.039 A 
ATOM     21  C   UNL     1     -29.980   8.829   6.885  1.00  0.00    +0.035 A 
ATOM     22  C   UNL     1     -30.905  10.969   6.342  1.00  0.00    +0.027 A 
ATOM     23  C   UNL     1     -28.678   9.297   6.625  1.00  0.00    -0.011 A 
ATOM     24  C   UNL     1     -29.618  11.457   6.080  1.00  0.00    +0.015 A 
ATOM     25  C   UNL     1     -27.580   8.432   6.754  1.00  0.00    +0.032 A 
ATOM     26  C   UNL     1     -28.477  10.640   6.224  1.00  0.00    +0.024 A 
ATOM     27  C   UNL     1     -26.287   8.889   6.486  1.00  0.00    +0.098 A 
ATOM     28  C   UNL     1     -27.147  11.071   5.985  1.00  0.00    +0.124 A 
ATOM     29  C   UNL     1     -26.061  10.206   6.104  1.00  0.00    +0.069 A 
BRANCH  27  30
ATOM     30  S   UNL     1     -24.922   7.786   6.684  1.00  0.00    +0.294 S 
ATOM     31  O   UNL     1     -25.449   6.444   6.753  1.00  0.00    -0.194 OA
ATOM     32  O   UNL     1     -23.888   8.163   5.745  1.00  0.00    -0.194 OA
BRANCH  30  33
ATOM     33  O   UNL     1     -24.312   8.155   8.132  1.00  0.00    -0.282 OA
ATOM     34  H   UNL     1     -23.350   7.965   8.097  1.00  0.00    +0.234 HD
ENDBRANCH  30  33
ENDBRANCH  27  30
BRANCH  28  35
ATOM     35  O   UNL     1     -26.825  12.353   5.629  1.00  0.00    -0.507 OA
ATOM     36  H   UNL     1     -25.967  12.355   5.178  1.00  0.00    +0.293 HD
ENDBRANCH  28  35
ENDBRANCH   1  20
TORSDOF 8
ENDMDL
MODEL 5
REMARK VINA RESULT:   -11.267      2.944      9.692
REMARK INTER + INTRA:         -15.760
REMARK INTER:                 -15.299
REMARK INTRA:                  -0.461
REMARK UNBOUND:                -0.542
REMARK SMILES O=S(=O)(O)c1cc(O)c2ccc(Nc3ccc4c(O)cc(S(=O)(=O)O)cc4c3)cc2c1
REMARK SMILES IDX 13 1 12 3 7 4 9 5 6 6 10 7 30 8 5 9 11 10 29 11 31 12 8 13
REMARK SMILES IDX 2 15 1 16 3 17 4 18 14 20 28 21 15 22 27 23 16 24 26 25
REMARK SMILES IDX 17 26 21 27 18 28 20 29 22 30 23 31 24 32 25 33 19 35
REMARK H PARENT 13 2 8 14 4 19 25 34 19 36
ROOT
ATOM      1  N   UNL     1     -25.323   5.700   7.929  1.00  0.00    -0.355 N 
ATOM      2  H   UNL     1     -24.488   5.352   7.470  1.00  0.00    +0.167 HD
ENDROOT
BRANCH   1   3
ATOM      3  C   UNL     1     -25.822   4.846   8.927  1.00  0.00    +0.039 A 
ATOM      4  C   UNL     1     -27.503   2.161  11.795  1.00  0.00    +0.124 A 
ATOM      5  C   UNL     1     -26.904   3.047  10.866  1.00  0.00    +0.024 A 
ATOM      6  C   UNL     1     -28.772   1.626  11.589  1.00  0.00    +0.069 A 
ATOM      7  C   UNL     1     -25.605   3.585  10.997  1.00  0.00    +0.015 A 
ATOM      8  C   UNL     1     -27.652   3.412   9.719  1.00  0.00    -0.011 A 
ATOM      9  C   UNL     1     -29.479   1.985  10.447  1.00  0.00    +0.098 A 
ATOM     10  C   UNL     1     -25.079   4.464  10.042  1.00  0.00    +0.027 A 
ATOM     11  C   UNL     1     -27.104   4.302   8.777  1.00  0.00    +0.035 A 
ATOM     12  C   UNL     1     -28.935   2.877   9.521  1.00  0.00    +0.032 A 
BRANCH   4  13
ATOM     13  O   UNL     1     -26.894   1.767  12.958  1.00  0.00    -0.507 OA
ATOM     14  H   UNL     1     -27.038   2.443  13.638  1.00  0.00    +0.293 HD
ENDBRANCH   4  13
BRANCH   9  15
ATOM     15  S   UNL     1     -31.099   1.330  10.187  1.00  0.00    +0.294 S 
ATOM     16  O   UNL     1     -31.837   2.281   9.387  1.00  0.00    -0.194 OA
ATOM     17  O   UNL     1     -31.606   0.851  11.455  1.00  0.00    -0.194 OA
BRANCH  15  18
ATOM     18  O   UNL     1     -30.883   0.034   9.251  1.00  0.00    -0.282 OA
ATOM     19  H   UNL     1     -31.338   0.203   8.400  1.00  0.00    +0.234 HD
ENDBRANCH  15  18
ENDBRANCH   9  15
ENDBRANCH   1   3
BRANCH   1  20
ATOM     20  C   UNL     1     -25.769   6.941   7.445  1.00  0.00    +0.039 A 
ATOM     21  C   UNL     1     -27.129   7.262   7.545  1.00  0.00    +0.035 A 
ATOM     22  C   UNL     1     -24.911   7.903   6.916  1.00  0.00    +0.027 A 
ATOM     23  C   UNL     1     -27.638   8.501   7.111  1.00  0.00    -0.011 A 
ATOM     24  C   UNL     1     -25.395   9.141   6.475  1.00  0.00    +0.015 A 
ATOM     25  C   UNL     1     -29.007   8.784   7.239  1.00  0.00    +0.032 A 
ATOM     26  C   UNL     1     -26.766   9.466   6.552  1.00  0.00    +0.024 A 
ATOM     27  C   UNL     1     -29.514  10.016   6.820  1.00  0.00    +0.098 A 
ATOM     28  C   UNL     1     -27.324  10.695   6.117  1.00  0.00    +0.124 A 
ATOM     29  C   UNL     1     -28.682  10.975   6.256  1.00  0.00    +0.069 A 
BRANCH  27  30
ATOM     30  S   UNL     1     -31.245  10.334   6.968  1.00  0.00    +0.294 S 
ATOM     31  O   UNL     1     -31.947   9.143   6.553  1.00  0.00    -0.194 OA
ATOM     32  O   UNL     1     -31.488  10.967   8.246  1.00  0.00    -0.194 OA
BRANCH  30  33
ATOM     33  O   UNL     1     -31.538  11.488   5.879  1.00  0.00    -0.282 OA
ATOM     34  H   UNL     1     -31.326  12.347   6.304  1.00  0.00    +0.234 HD
ENDBRANCH  30  33
ENDBRANCH  27  30
BRANCH  28  35
ATOM     35  O   UNL     1     -26.589  11.689   5.528  1.00  0.00    -0.507 OA
ATOM     36  H   UNL     1     -25.648  11.544   5.712  1.00  0.00    +0.293 HD
ENDBRANCH  28  35
ENDBRANCH   1  20
TORSDOF 8
ENDMDL
MODEL 6
REMARK VINA RESULT:   -10.999      3.113      3.712
REMARK INTER + INTRA:         -15.398
REMARK INTER:                 -14.978
REMARK INTRA:                  -0.421
REMARK UNBOUND:                -0.542
REMARK SMILES O=S(=O)(O)c1cc(O)c2ccc(Nc3ccc4c(O)cc(S(=O)(=O)O)cc4c3)cc2c1
REMARK SMILES IDX 13 1 12 3 7 4 9 5 6 6 10 7 30 8 5 9 11 10 29 11 31 12 8 13
REMARK SMILES IDX 2 15 1 16 3 17 4 18 14 20 28 21 15 22 27 23 16 24 26 25
REMARK SMILES IDX 17 26 21 27 18 28 20 29 22 30 23 31 24 32 25 33 19 35
REMARK H PARENT 13 2 8 14 4 19 25 34 19 36
ROOT
ATOM      1  N   UNL     1     -25.396   5.381   8.073  1.00  0.00    -0.355 N 
ATOM      2  H   UNL     1     -24.551   5.032   7.631  1.00  0.00    +0.167 HD
ENDROOT
BRANCH   1   3
ATOM      3  C   UNL     1     -25.825   6.625   7.579  1.00  0.00    +0.039 A 
ATOM      4  C   UNL     1     -27.335  10.385   6.220  1.00  0.00    +0.124 A 
ATOM      5  C   UNL     1     -26.791   9.155   6.666  1.00  0.00    +0.024 A 
ATOM      6  C   UNL     1     -28.690  10.679   6.350  1.00  0.00    +0.069 A 
ATOM      7  C   UNL     1     -25.421   8.817   6.604  1.00  0.00    +0.015 A 
ATOM      8  C   UNL     1     -27.676   8.200   7.223  1.00  0.00    -0.011 A 
ATOM      9  C   UNL     1     -29.535   9.733   6.917  1.00  0.00    +0.098 A 
ATOM     10  C   UNL     1     -24.952   7.577   7.056  1.00  0.00    +0.027 A 
ATOM     11  C   UNL     1     -27.183   6.958   7.664  1.00  0.00    +0.035 A 
ATOM     12  C   UNL     1     -29.043   8.498   7.342  1.00  0.00    +0.032 A 
BRANCH   4  13
ATOM     13  O   UNL     1     -26.585  11.368   5.630  1.00  0.00    -0.507 OA
ATOM     14  H   UNL     1     -25.667  11.066   5.552  1.00  0.00    +0.293 HD
ENDBRANCH   4  13
BRANCH   9  15
ATOM     15  S   UNL     1     -31.259  10.088   7.065  1.00  0.00    +0.294 S 
ATOM     16  O   UNL     1     -31.455  10.827   8.291  1.00  0.00    -0.194 OA
ATOM     17  O   UNL     1     -32.001   8.878   6.782  1.00  0.00    -0.194 OA
BRANCH  15  18
ATOM     18  O   UNL     1     -31.580  11.121   5.867  1.00  0.00    -0.282 OA
ATOM     19  H   UNL     1     -32.504  10.965   5.580  1.00  0.00    +0.234 HD
ENDBRANCH  15  18
ENDBRANCH   9  15
ENDBRANCH   1   3
BRANCH   1  20
ATOM     20  C   UNL     1     -25.913   4.536   9.068  1.00  0.00    +0.039 A 
ATOM     21  C   UNL     1     -27.234   4.079   8.955  1.00  0.00    +0.035 A 
ATOM     22  C   UNL     1     -25.156   4.076  10.144  1.00  0.00    +0.027 A 
ATOM     23  C   UNL     1     -27.804   3.204   9.898  1.00  0.00    -0.011 A 
ATOM     24  C   UNL     1     -25.704   3.207  11.096  1.00  0.00    +0.015 A 
ATOM     25  C   UNL     1     -29.128   2.764   9.740  1.00  0.00    +0.032 A 
ATOM     26  C   UNL     1     -27.039   2.759  11.003  1.00  0.00    +0.024 A 
ATOM     27  C   UNL     1     -29.694   1.886  10.667  1.00  0.00    +0.098 A 
ATOM     28  C   UNL     1     -27.659   1.887  11.934  1.00  0.00    +0.124 A 
ATOM     29  C   UNL     1     -28.969   1.445  11.767  1.00  0.00    +0.069 A 
BRANCH  27  30
ATOM     30  S   UNL     1     -31.371   1.371  10.457  1.00  0.00    +0.294 S 
ATOM     31  O   UNL     1     -31.381   0.277   9.515  1.00  0.00    -0.194 OA
ATOM     32  O   UNL     1     -31.987   1.273  11.762  1.00  0.00    -0.194 OA
BRANCH  30  33
ATOM     33  O   UNL     1     -32.095   2.633   9.758  1.00  0.00    -0.282 OA
ATOM     34  H   UNL     1     -31.457   3.378   9.774  1.00  0.00    +0.234 HD
ENDBRANCH  30  33
ENDBRANCH  27  30
BRANCH  28  35
ATOM     35  O   UNL     1     -27.033   1.420  13.059  1.00  0.00    -0.507 OA
ATOM     36  H   UNL     1     -26.415   2.092  13.385  1.00  0.00    +0.293 HD
ENDBRANCH  28  35
ENDBRANCH   1  20
TORSDOF 8
ENDMDL
MODEL 7
REMARK VINA RESULT:   -10.736      6.404     11.990
REMARK INTER + INTRA:         -15.044
REMARK INTER:                 -14.353
REMARK INTRA:                  -0.691
REMARK UNBOUND:                -0.542
REMARK SMILES O=S(=O)(O)c1cc(O)c2ccc(Nc3ccc4c(O)cc(S(=O)(=O)O)cc4c3)cc2c1
REMARK SMILES IDX 13 1 12 3 7 4 9 5 6 6 10 7 30 8 5 9 11 10 29 11 31 12 8 13
REMARK SMILES IDX 2 15 1 16 3 17 4 18 14 20 28 21 15 22 27 23 16 24 26 25
REMARK SMILES IDX 17 26 21 27 18 28 20 29 22 30 23 31 24 32 25 33 19 35
REMARK H PARENT 13 2 8 14 4 19 25 34 19 36
ROOT
ATOM      1  N   UNL     1     -33.812   0.605  10.204  1.00  0.00    -0.355 N 
ATOM      2  H   UNL     1     -34.466  -0.171  10.185  1.00  0.00    +0.167 HD
ENDROOT
BRANCH   1   3
ATOM      3  C   UNL     1     -32.507   0.241  10.576  1.00  0.00    +0.039 A 
ATOM      4  C   UNL     1     -28.619  -0.893  11.941  1.00  0.00    +0.124 A 
ATOM      5  C   UNL     1     -29.898  -0.536  11.447  1.00  0.00    +0.024 A 
ATOM      6  C   UNL     1     -28.304  -0.811  13.295  1.00  0.00    +0.069 A 
ATOM      7  C   UNL     1     -30.291  -0.640  10.094  1.00  0.00    +0.015 A 
ATOM      8  C   UNL     1     -30.856  -0.052  12.371  1.00  0.00    -0.011 A 
ATOM      9  C   UNL     1     -29.268  -0.351  14.185  1.00  0.00    +0.098 A 
ATOM     10  C   UNL     1     -31.571  -0.261   9.674  1.00  0.00    +0.027 A 
ATOM     11  C   UNL     1     -32.134   0.329  11.924  1.00  0.00    +0.035 A 
ATOM     12  C   UNL     1     -30.530   0.037  13.734  1.00  0.00    +0.032 A 
BRANCH   4  13
ATOM     13  O   UNL     1     -27.600  -1.336  11.139  1.00  0.00    -0.507 OA
ATOM     14  H   UNL     1     -27.879  -2.148  10.689  1.00  0.00    +0.293 HD
ENDBRANCH   4  13
BRANCH   9  15
ATOM     15  S   UNL     1     -28.871  -0.221  15.901  1.00  0.00    +0.294 S 
ATOM     16  O   UNL     1     -27.447  -0.426  16.043  1.00  0.00    -0.194 OA
ATOM     17  O   UNL     1     -29.828  -1.006  16.652  1.00  0.00    -0.194 OA
BRANCH  15  18
ATOM     18  O   UNL     1     -29.137   1.325  16.279  1.00  0.00    -0.282 OA
ATOM     19  H   UNL     1     -28.736   1.876  15.575  1.00  0.00    +0.234 HD
ENDBRANCH  15  18
ENDBRANCH   9  15
ENDBRANCH   1   3
BRANCH   1  20
ATOM     20  C   UNL     1     -34.382   1.842   9.862  1.00  0.00    +0.039 A 
ATOM     21  C   UNL     1     -33.583   2.810   9.237  1.00  0.00    +0.035 A 
ATOM     22  C   UNL     1     -35.728   2.141  10.061  1.00  0.00    +0.027 A 
ATOM     23  C   UNL     1     -34.097   4.057   8.837  1.00  0.00    -0.011 A 
ATOM     24  C   UNL     1     -36.261   3.376   9.674  1.00  0.00    +0.015 A 
ATOM     25  C   UNL     1     -33.263   4.993   8.206  1.00  0.00    +0.032 A 
ATOM     26  C   UNL     1     -35.461   4.365   9.063  1.00  0.00    +0.024 A 
ATOM     27  C   UNL     1     -33.772   6.228   7.796  1.00  0.00    +0.098 A 
ATOM     28  C   UNL     1     -35.932   5.638   8.655  1.00  0.00    +0.124 A 
ATOM     29  C   UNL     1     -35.103   6.560   8.019  1.00  0.00    +0.069 A 
BRANCH  27  30
ATOM     30  S   UNL     1     -32.692   7.397   7.029  1.00  0.00    +0.294 S 
ATOM     31  O   UNL     1     -31.377   7.217   7.596  1.00  0.00    -0.194 OA
ATOM     32  O   UNL     1     -32.928   7.372   5.602  1.00  0.00    -0.194 OA
BRANCH  30  33
ATOM     33  O   UNL     1     -33.247   8.834   7.509  1.00  0.00    -0.282 OA
ATOM     34  H   UNL     1     -33.011   9.482   6.812  1.00  0.00    +0.234 HD
ENDBRANCH  30  33
ENDBRANCH  27  30
BRANCH  28  35
ATOM     35  O   UNL     1     -37.219   6.064   8.853  1.00  0.00    -0.507 OA
ATOM     36  H   UNL     1     -37.378   6.171   9.803  1.00  0.00    +0.293 HD
ENDBRANCH  28  35
ENDBRANCH   1  20
TORSDOF 8
ENDMDL
MODEL 8
REMARK VINA RESULT:   -10.723      6.414      7.748
REMARK INTER + INTRA:         -15.026
REMARK INTER:                 -14.341
REMARK INTRA:                  -0.685
REMARK UNBOUND:                -0.542
REMARK SMILES O=S(=O)(O)c1cc(O)c2ccc(Nc3ccc4c(O)cc(S(=O)(=O)O)cc4c3)cc2c1
REMARK SMILES IDX 13 1 12 3 7 4 9 5 6 6 10 7 30 8 5 9 11 10 29 11 31 12 8 13
REMARK SMILES IDX 2 15 1 16 3 17 4 18 14 20 28 21 15 22 27 23 16 24 26 25
REMARK SMILES IDX 17 26 21 27 18 28 20 29 22 30 23 31 24 32 25 33 19 35
REMARK H PARENT 13 2 8 14 4 19 25 34 19 36
ROOT
ATOM      1  N   UNL     1     -33.809   0.599  10.236  1.00  0.00    -0.355 N 
ATOM      2  H   UNL     1     -34.461  -0.179  10.215  1.00  0.00    +0.167 HD
ENDROOT
BRANCH   1   3
ATOM      3  C   UNL     1     -34.381   1.832   9.880  1.00  0.00    +0.039 A 
ATOM      4  C   UNL     1     -35.932   5.614   8.636  1.00  0.00    +0.124 A 
ATOM      5  C   UNL     1     -35.462   4.346   9.055  1.00  0.00    +0.024 A 
ATOM      6  C   UNL     1     -35.098   6.538   8.011  1.00  0.00    +0.069 A 
ATOM      7  C   UNL     1     -36.268   3.351   9.652  1.00  0.00    +0.015 A 
ATOM      8  C   UNL     1     -34.093   4.044   8.854  1.00  0.00    -0.011 A 
ATOM      9  C   UNL     1     -33.762   6.212   7.807  1.00  0.00    +0.098 A 
ATOM     10  C   UNL     1     -35.734   2.120  10.051  1.00  0.00    +0.027 A 
ATOM     11  C   UNL     1     -33.577   2.803   9.270  1.00  0.00    +0.035 A 
ATOM     12  C   UNL     1     -33.254   4.983   8.232  1.00  0.00    +0.032 A 
BRANCH   4  13
ATOM     13  O   UNL     1     -37.225   6.033   8.812  1.00  0.00    -0.507 OA
ATOM     14  H   UNL     1     -37.254   7.002   8.775  1.00  0.00    +0.293 HD
ENDBRANCH   4  13
BRANCH   9  15
ATOM     15  S   UNL     1     -32.691   7.385   7.036  1.00  0.00    +0.294 S 
ATOM     16  O   UNL     1     -32.915   7.318   5.609  1.00  0.00    -0.194 OA
ATOM     17  O   UNL     1     -31.368   7.238   7.603  1.00  0.00    -0.194 OA
BRANCH  15  18
ATOM     18  O   UNL     1     -33.241   8.828   7.504  1.00  0.00    -0.282 OA
ATOM     19  H   UNL     1     -34.218   8.811   7.432  1.00  0.00    +0.234 HD
ENDBRANCH  15  18
ENDBRANCH   9  15
ENDBRANCH   1   3
BRANCH   1  20
ATOM     20  C   UNL     1     -32.502   0.242  10.608  1.00  0.00    +0.039 A 
ATOM     21  C   UNL     1     -32.135   0.312  11.959  1.00  0.00    +0.035 A 
ATOM     22  C   UNL     1     -31.558  -0.238   9.702  1.00  0.00    +0.027 A 
ATOM     23  C   UNL     1     -30.854  -0.063  12.405  1.00  0.00    -0.011 A 
ATOM     24  C   UNL     1     -30.276  -0.614  10.122  1.00  0.00    +0.015 A 
ATOM     25  C   UNL     1     -30.533   0.015  13.769  1.00  0.00    +0.032 A 
ATOM     26  C   UNL     1     -29.890  -0.527  11.477  1.00  0.00    +0.024 A 
ATOM     27  C   UNL     1     -29.266  -0.367  14.218  1.00  0.00    +0.098 A 
ATOM     28  C   UNL     1     -28.609  -0.882  11.970  1.00  0.00    +0.124 A 
ATOM     29  C   UNL     1     -28.298  -0.813  13.326  1.00  0.00    +0.069 A 
BRANCH  27  30
ATOM     30  S   UNL     1     -28.881  -0.232  15.936  1.00  0.00    +0.294 S 
ATOM     31  O   UNL     1     -29.857  -1.006  16.667  1.00  0.00    -0.194 OA
ATOM     32  O   UNL     1     -27.457  -0.428  16.104  1.00  0.00    -0.194 OA
BRANCH  30  33
ATOM     33  O   UNL     1     -29.122   1.325  16.283  1.00  0.00    -0.282 OA
ATOM     34  H   UNL     1     -29.745   1.359  17.041  1.00  0.00    +0.234 HD
ENDBRANCH  30  33
ENDBRANCH  27  30
BRANCH  28  35
ATOM     35  O   UNL     1     -27.585  -1.308  11.166  1.00  0.00    -0.507 OA
ATOM     36  H   UNL     1     -26.968  -0.576  11.016  1.00  0.00    +0.293 HD
ENDBRANCH  28  35
ENDBRANCH   1  20
TORSDOF 8
ENDMDL
MODEL 9
REMARK VINA RESULT:   -10.625      6.517      7.741
REMARK INTER + INTRA:         -14.894
REMARK INTER:                 -14.607
REMARK INTRA:                  -0.287
REMARK UNBOUND:                -0.542
REMARK SMILES O=S(=O)(O)c1cc(O)c2ccc(Nc3ccc4c(O)cc(S(=O)(=O)O)cc4c3)cc2c1
REMARK SMILES IDX 13 1 12 3 7 4 9 5 6 6 10 7 30 8 5 9 11 10 29 11 31 12 8 13
REMARK SMILES IDX 2 15 1 16 3 17 4 18 14 20 28 21 15 22 27 23 16 24 26 25
REMARK SMILES IDX 17 26 21 27 18 28 20 29 22 30 23 31 24 32 25 33 19 35
REMARK H PARENT 13 2 8 14 4 19 25 34 19 36
ROOT
ATOM      1  N   UNL     1     -33.068   0.115  10.538  1.00  0.00    -0.355 N 
ATOM      2  H   UNL     1     -33.863  -0.515  10.512  1.00  0.00    +0.167 HD
ENDROOT
BRANCH   1   3
ATOM      3  C   UNL     1     -33.360   1.420  10.104  1.00  0.00    +0.039 A 
ATOM      4  C   UNL     1     -34.453   5.381   8.929  1.00  0.00    +0.124 A 
ATOM      5  C   UNL     1     -34.045   4.080   9.314  1.00  0.00    +0.024 A 
ATOM      6  C   UNL     1     -35.764   5.819   9.092  1.00  0.00    +0.069 A 
ATOM      7  C   UNL     1     -32.723   3.594   9.216  1.00  0.00    +0.015 A 
ATOM      8  C   UNL     1     -35.026   3.206   9.844  1.00  0.00    -0.011 A 
ATOM      9  C   UNL     1     -36.705   4.949   9.632  1.00  0.00    +0.098 A 
ATOM     10  C   UNL     1     -32.392   2.290   9.608  1.00  0.00    +0.027 A 
ATOM     11  C   UNL     1     -34.671   1.898  10.224  1.00  0.00    +0.035 A 
ATOM     12  C   UNL     1     -36.350   3.649   9.997  1.00  0.00    +0.032 A 
BRANCH   4  13
ATOM     13  O   UNL     1     -33.604   6.299   8.370  1.00  0.00    -0.507 OA
ATOM     14  H   UNL     1     -33.812   7.180   8.721  1.00  0.00    +0.293 HD
ENDBRANCH   4  13
BRANCH   9  15
ATOM     15  S   UNL     1     -38.376   5.487   9.821  1.00  0.00    +0.294 S 
ATOM     16  O   UNL     1     -38.563   6.652   8.986  1.00  0.00    -0.194 OA
ATOM     17  O   UNL     1     -38.693   5.509  11.233  1.00  0.00    -0.194 OA
BRANCH  15  18
ATOM     18  O   UNL     1     -39.272   4.319   9.161  1.00  0.00    -0.282 OA
ATOM     19  H   UNL     1     -39.585   4.641   8.289  1.00  0.00    +0.234 HD
ENDBRANCH  15  18
ENDBRANCH   9  15
ENDBRANCH   1   3
BRANCH   1  20
ATOM     20  C   UNL     1     -31.879  -0.479  10.993  1.00  0.00    +0.039 A 
ATOM     21  C   UNL     1     -30.677  -0.192  10.331  1.00  0.00    +0.035 A 
ATOM     22  C   UNL     1     -31.823  -1.303  12.115  1.00  0.00    +0.027 A 
ATOM     23  C   UNL     1     -29.446  -0.726  10.755  1.00  0.00    -0.011 A 
ATOM     24  C   UNL     1     -30.609  -1.848  12.553  1.00  0.00    +0.015 A 
ATOM     25  C   UNL     1     -28.265  -0.404  10.067  1.00  0.00    +0.032 A 
ATOM     26  C   UNL     1     -29.397  -1.582  11.882  1.00  0.00    +0.024 A 
ATOM     27  C   UNL     1     -27.039  -0.923  10.491  1.00  0.00    +0.098 A 
ATOM     28  C   UNL     1     -28.136  -2.106  12.264  1.00  0.00    +0.124 A 
ATOM     29  C   UNL     1     -26.966  -1.776  11.585  1.00  0.00    +0.069 A 
BRANCH  27  30
ATOM     30  S   UNL     1     -25.574  -0.523   9.590  1.00  0.00    +0.294 S 
ATOM     31  O   UNL     1     -25.819   0.709   8.877  1.00  0.00    -0.194 OA
ATOM     32  O   UNL     1     -24.435  -0.695  10.465  1.00  0.00    -0.194 OA
BRANCH  30  33
ATOM     33  O   UNL     1     -25.434  -1.706   8.501  1.00  0.00    -0.282 OA
ATOM     34  H   UNL     1     -26.226  -2.278   8.594  1.00  0.00    +0.234 HD
ENDBRANCH  30  33
ENDBRANCH  27  30
BRANCH  28  35
ATOM     35  O   UNL     1     -27.969  -2.972  13.312  1.00  0.00    -0.507 OA
ATOM     36  H   UNL     1     -28.812  -3.408  13.507  1.00  0.00    +0.293 HD
ENDBRANCH  28  35
ENDBRANCH   1  20
TORSDOF 8
ENDMDL
