REMARK SMILES COc1ccc2[nH]c3ccccc3c(=O)c2c1
REMARK SMILES IDX 3 1 17 2 16 3 6 4 7 5 8 6 13 7 12 8 11 9 10 10 9 11 14 12
REMARK SMILES IDX 15 13 5 14 4 15 2 17 1 18
REMARK H PARENT 7 16
ROOT
ATOM      1  C   UNL     1      -2.838   0.304   0.102  1.00  0.00    +0.119 A 
ATOM      2  C   UNL     1      -1.778   0.196   1.003  1.00  0.00    +0.060 A 
ATOM      3  C   UNL     1      -0.461   0.150   0.535  1.00  0.00    +0.050 A 
ATOM      4  C   UNL     1      -0.183   0.194  -0.838  1.00  0.00    +0.050 A 
ATOM      5  N   UNL     1       1.144   0.202  -1.294  1.00  0.00    -0.354 N 
ATOM      6  C   UNL     1       2.242   0.026  -0.436  1.00  0.00    +0.050 A 
ATOM      7  C   UNL     1       2.053  -0.024   0.954  1.00  0.00    +0.046 A 
ATOM      8  C   UNL     1       3.142  -0.144   1.823  1.00  0.00    +0.014 A 
ATOM      9  C   UNL     1       4.435  -0.199   1.305  1.00  0.00    +0.001 A 
ATOM     10  C   UNL     1       4.636  -0.127  -0.074  1.00  0.00    +0.002 A 
ATOM     11  C   UNL     1       3.546  -0.006  -0.941  1.00  0.00    +0.027 A 
ATOM     12  C   UNL     1       0.670   0.041   1.491  1.00  0.00    +0.197 A 
ATOM     13  O   UNL     1       0.468   0.001   2.701  1.00  0.00    -0.288 OA
ATOM     14  C   UNL     1      -1.247   0.325  -1.733  1.00  0.00    +0.030 A 
ATOM     15  C   UNL     1      -2.568   0.372  -1.267  1.00  0.00    +0.048 A 
ATOM     16  H   UNL     1       1.294  -0.009  -2.273  1.00  0.00    +0.167 HD
ENDROOT
BRANCH   1  17
ATOM     17  O   UNL     1      -4.077   0.340   0.678  1.00  0.00    -0.497 OA
ATOM     18  C   UNL     1      -5.194   0.451  -0.194  1.00  0.00    +0.278 C 
ENDBRANCH   1  17
TORSDOF 1
