MODEL 1
REMARK VINA RESULT:   -11.291      0.000      0.000
REMARK INTER + INTRA:         -16.441
REMARK INTER:                 -15.582
REMARK INTRA:                  -0.859
REMARK UNBOUND:                -0.859
REMARK SMILES Nc1ccc(C(=O)Nc2ccc(C(=O)Nc3ccc4c(O)cc(S(=O)(=O)O)cc4c3)cc2)cc1
REMARK SMILES IDX 9 1 10 2 11 3 12 4 31 5 32 6 8 7 6 8 7 9 5 11 2 12 3 13
REMARK SMILES IDX 34 14 4 15 33 16 1 17 13 20 14 21 15 22 16 24 30 25 17 26
REMARK SMILES IDX 29 27 18 28 28 29 19 30 23 31 20 32 22 33 24 34 25 35 26 36
REMARK SMILES IDX 27 37 21 39
REMARK H PARENT 8 10 1 18 1 19 15 23 27 38 21 40
ROOT
ATOM      1  C   UNL     1     -35.952   3.020   9.683  1.00  0.00    +0.041 A 
ATOM      2  C   UNL     1     -34.879   3.638  10.329  1.00  0.00    +0.027 A 
ATOM      3  C   UNL     1     -34.063   4.549   9.647  1.00  0.00    +0.016 A 
ATOM      4  C   UNL     1     -34.312   4.847   8.304  1.00  0.00    +0.040 A 
ATOM      5  C   UNL     1     -35.399   4.251   7.659  1.00  0.00    +0.016 A 
ATOM      6  C   UNL     1     -36.211   3.341   8.343  1.00  0.00    +0.027 A 
ENDROOT
BRANCH   1   7
ATOM      7  N   UNL     1     -36.820   2.099  10.305  1.00  0.00    -0.322 N 
ATOM      8  C   UNL     1     -38.011   2.377  10.949  1.00  0.00    +0.255 C 
ATOM      9  O   UNL     1     -38.490   3.484  11.166  1.00  0.00    -0.269 OA
ATOM     10  H   UNL     1     -36.489   1.143  10.347  1.00  0.00    +0.170 HD
BRANCH   8  11
ATOM     11  C   UNL     1     -38.742   1.181  11.455  1.00  0.00    +0.040 A 
ATOM     12  C   UNL     1     -40.206  -1.022  12.413  1.00  0.00    +0.031 A 
ATOM     13  C   UNL     1     -39.154  -1.205  11.510  1.00  0.00    +0.026 A 
ATOM     14  C   UNL     1     -40.470   0.266  12.886  1.00  0.00    +0.026 A 
ATOM     15  C   UNL     1     -38.439  -0.111  11.010  1.00  0.00    +0.016 A 
ATOM     16  C   UNL     1     -39.765   1.367  12.391  1.00  0.00    +0.016 A 
BRANCH  12  17
ATOM     17  N   UNL     1     -40.833  -2.127  12.996  1.00  0.00    -0.399 N 
ATOM     18  H   UNL     1     -40.386  -2.452  13.849  1.00  0.00    +0.156 HD
ATOM     19  H   UNL     1     -41.837  -2.025  13.106  1.00  0.00    +0.156 HD
ENDBRANCH  12  17
ENDBRANCH   8  11
ENDBRANCH   1   7
BRANCH   4  20
ATOM     20  C   UNL     1     -33.468   5.809   7.539  1.00  0.00    +0.255 C 
ATOM     21  O   UNL     1     -33.435   5.707   6.319  1.00  0.00    -0.269 OA
ATOM     22  N   UNL     1     -32.759   6.708   8.315  1.00  0.00    -0.322 N 
ATOM     23  H   UNL     1     -32.779   6.563   9.317  1.00  0.00    +0.170 HD
BRANCH  22  24
ATOM     24  C   UNL     1     -31.922   7.751   7.866  1.00  0.00    +0.042 A 
ATOM     25  C   UNL     1     -30.554   7.612   7.636  1.00  0.00    +0.035 A 
ATOM     26  C   UNL     1     -32.517   8.989   7.623  1.00  0.00    +0.027 A 
ATOM     27  C   UNL     1     -29.769   8.692   7.187  1.00  0.00    -0.011 A 
ATOM     28  C   UNL     1     -31.754  10.075   7.178  1.00  0.00    +0.015 A 
ATOM     29  C   UNL     1     -28.395   8.511   6.958  1.00  0.00    +0.032 A 
ATOM     30  C   UNL     1     -30.363   9.958   6.961  1.00  0.00    +0.024 A 
ATOM     31  C   UNL     1     -27.606   9.574   6.516  1.00  0.00    +0.098 A 
ATOM     32  C   UNL     1     -29.526  11.015   6.521  1.00  0.00    +0.124 A 
ATOM     33  C   UNL     1     -28.166  10.827   6.290  1.00  0.00    +0.069 A 
BRANCH  31  34
ATOM     34  S   UNL     1     -25.882   9.332   6.209  1.00  0.00    +0.294 S 
ATOM     35  O   UNL     1     -25.225   9.028   7.463  1.00  0.00    -0.194 OA
ATOM     36  O   UNL     1     -25.738   8.470   5.057  1.00  0.00    -0.194 OA
BRANCH  34  37
ATOM     37  O   UNL     1     -25.349  10.798   5.796  1.00  0.00    -0.282 OA
ATOM     38  H   UNL     1     -24.375  10.796   5.901  1.00  0.00    +0.234 HD
ENDBRANCH  34  37
ENDBRANCH  31  34
BRANCH  32  39
ATOM     39  O   UNL     1     -29.975  12.289   6.291  1.00  0.00    -0.507 OA
ATOM     40  H   UNL     1     -30.874  12.387   6.640  1.00  0.00    +0.293 HD
ENDBRANCH  32  39
ENDBRANCH  22  24
ENDBRANCH   4  20
TORSDOF 8
ENDMDL
MODEL 2
REMARK VINA RESULT:   -11.028      7.680     13.491
REMARK INTER + INTRA:         -16.078
REMARK INTER:                 -16.064
REMARK INTRA:                  -0.013
REMARK UNBOUND:                -0.859
REMARK SMILES Nc1ccc(C(=O)Nc2ccc(C(=O)Nc3ccc4c(O)cc(S(=O)(=O)O)cc4c3)cc2)cc1
REMARK SMILES IDX 9 1 10 2 11 3 12 4 31 5 32 6 8 7 6 8 7 9 5 11 2 12 3 13
REMARK SMILES IDX 34 14 4 15 33 16 1 17 13 20 14 21 15 22 16 24 30 25 17 26
REMARK SMILES IDX 29 27 18 28 28 29 19 30 23 31 20 32 22 33 24 34 25 35 26 36
REMARK SMILES IDX 27 37 21 39
REMARK H PARENT 8 10 1 18 1 19 15 23 27 38 21 40
ROOT
ATOM      1  C   UNL     1     -26.613   6.880   7.682  1.00  0.00    +0.041 A 
ATOM      2  C   UNL     1     -25.317   6.360   7.715  1.00  0.00    +0.027 A 
ATOM      3  C   UNL     1     -25.063   5.108   8.291  1.00  0.00    +0.016 A 
ATOM      4  C   UNL     1     -26.109   4.364   8.845  1.00  0.00    +0.040 A 
ATOM      5  C   UNL     1     -27.412   4.868   8.792  1.00  0.00    +0.016 A 
ATOM      6  C   UNL     1     -27.661   6.118   8.217  1.00  0.00    +0.027 A 
ENDROOT
BRANCH   1   7
ATOM      7  N   UNL     1     -26.946   8.127   7.115  1.00  0.00    -0.322 N 
ATOM      8  C   UNL     1     -28.166   8.774   7.175  1.00  0.00    +0.255 C 
ATOM      9  O   UNL     1     -29.204   8.344   7.665  1.00  0.00    -0.269 OA
ATOM     10  H   UNL     1     -26.231   8.552   6.537  1.00  0.00    +0.170 HD
BRANCH   8  11
ATOM     11  C   UNL     1     -28.194  10.117   6.530  1.00  0.00    +0.040 A 
ATOM     12  C   UNL     1     -28.303  12.686   5.390  1.00  0.00    +0.031 A 
ATOM     13  C   UNL     1     -27.163  11.889   5.242  1.00  0.00    +0.026 A 
ATOM     14  C   UNL     1     -29.412  12.157   6.053  1.00  0.00    +0.026 A 
ATOM     15  C   UNL     1     -27.093  10.621   5.829  1.00  0.00    +0.016 A 
ATOM     16  C   UNL     1     -29.353  10.892   6.646  1.00  0.00    +0.016 A 
BRANCH  12  17
ATOM     17  N   UNL     1     -28.408  13.899   4.702  1.00  0.00    -0.399 N 
ATOM     18  H   UNL     1     -27.528  14.233   4.320  1.00  0.00    +0.156 HD
ATOM     19  H   UNL     1     -29.156  13.923   4.016  1.00  0.00    +0.156 HD
ENDBRANCH  12  17
ENDBRANCH   8  11
ENDBRANCH   1   7
BRANCH   4  20
ATOM     20  C   UNL     1     -25.884   3.030   9.468  1.00  0.00    +0.255 C 
ATOM     21  O   UNL     1     -24.737   2.709   9.754  1.00  0.00    -0.269 OA
ATOM     22  N   UNL     1     -27.022   2.257   9.619  1.00  0.00    -0.322 N 
ATOM     23  H   UNL     1     -27.872   2.607   9.194  1.00  0.00    +0.170 HD
BRANCH  22  24
ATOM     24  C   UNL     1     -27.117   0.981  10.212  1.00  0.00    +0.042 A 
ATOM     25  C   UNL     1     -28.035   0.647  11.207  1.00  0.00    +0.035 A 
ATOM     26  C   UNL     1     -26.242  -0.004   9.754  1.00  0.00    +0.027 A 
ATOM     27  C   UNL     1     -28.081  -0.647  11.762  1.00  0.00    -0.011 A 
ATOM     28  C   UNL     1     -26.270  -1.295  10.294  1.00  0.00    +0.015 A 
ATOM     29  C   UNL     1     -29.027  -0.949  12.755  1.00  0.00    +0.032 A 
ATOM     30  C   UNL     1     -27.179  -1.645  11.317  1.00  0.00    +0.024 A 
ATOM     31  C   UNL     1     -29.080  -2.226  13.316  1.00  0.00    +0.098 A 
ATOM     32  C   UNL     1     -27.259  -2.928  11.917  1.00  0.00    +0.124 A 
ATOM     33  C   UNL     1     -28.203  -3.221  12.898  1.00  0.00    +0.069 A 
BRANCH  31  34
ATOM     34  S   UNL     1     -30.287  -2.604  14.551  1.00  0.00    +0.294 S 
ATOM     35  O   UNL     1     -30.268  -1.560  15.553  1.00  0.00    -0.194 OA
ATOM     36  O   UNL     1     -31.514  -2.990  13.890  1.00  0.00    -0.194 OA
BRANCH  34  37
ATOM     37  O   UNL     1     -29.695  -3.911  15.290  1.00  0.00    -0.282 OA
ATOM     38  H   UNL     1     -29.487  -3.657  16.213  1.00  0.00    +0.234 HD
ENDBRANCH  34  37
ENDBRANCH  31  34
BRANCH  32  39
ATOM     39  O   UNL     1     -26.428  -3.967  11.592  1.00  0.00    -0.507 OA
ATOM     40  H   UNL     1     -25.560  -3.624  11.334  1.00  0.00    +0.293 HD
ENDBRANCH  32  39
ENDBRANCH  22  24
ENDBRANCH   4  20
TORSDOF 8
ENDMDL
MODEL 3
REMARK VINA RESULT:   -10.714      8.733     11.474
REMARK INTER + INTRA:         -15.644
REMARK INTER:                 -15.242
REMARK INTRA:                  -0.402
REMARK UNBOUND:                -0.859
REMARK SMILES Nc1ccc(C(=O)Nc2ccc(C(=O)Nc3ccc4c(O)cc(S(=O)(=O)O)cc4c3)cc2)cc1
REMARK SMILES IDX 9 1 10 2 11 3 12 4 31 5 32 6 8 7 6 8 7 9 5 11 2 12 3 13
REMARK SMILES IDX 34 14 4 15 33 16 1 17 13 20 14 21 15 22 16 24 30 25 17 26
REMARK SMILES IDX 29 27 18 28 28 29 19 30 23 31 20 32 22 33 24 34 25 35 26 36
REMARK SMILES IDX 27 37 21 39
REMARK H PARENT 8 10 1 18 1 19 15 23 27 38 21 40
ROOT
ATOM      1  C   UNL     1     -24.200   0.691  10.294  1.00  0.00    +0.041 A 
ATOM      2  C   UNL     1     -25.391   0.630   9.565  1.00  0.00    +0.027 A 
ATOM      3  C   UNL     1     -26.063   1.802   9.196  1.00  0.00    +0.016 A 
ATOM      4  C   UNL     1     -25.550   3.051   9.558  1.00  0.00    +0.040 A 
ATOM      5  C   UNL     1     -24.346   3.119  10.266  1.00  0.00    +0.016 A 
ATOM      6  C   UNL     1     -23.678   1.946  10.634  1.00  0.00    +0.027 A 
ENDROOT
BRANCH   1   7
ATOM      7  N   UNL     1     -23.465  -0.443  10.695  1.00  0.00    -0.322 N 
ATOM      8  C   UNL     1     -22.369  -0.998  10.059  1.00  0.00    +0.255 C 
ATOM      9  O   UNL     1     -21.888  -0.651   8.987  1.00  0.00    -0.269 OA
ATOM     10  H   UNL     1     -23.833  -0.946  11.494  1.00  0.00    +0.170 HD
BRANCH   8  11
ATOM     11  C   UNL     1     -21.763  -2.164  10.761  1.00  0.00    +0.040 A 
ATOM     12  C   UNL     1     -20.614  -4.414  11.998  1.00  0.00    +0.031 A 
ATOM     13  C   UNL     1     -20.322  -3.124  12.454  1.00  0.00    +0.026 A 
ATOM     14  C   UNL     1     -21.541  -4.568  10.965  1.00  0.00    +0.026 A 
ATOM     15  C   UNL     1     -20.870  -2.000  11.826  1.00  0.00    +0.016 A 
ATOM     16  C   UNL     1     -22.093  -3.452  10.328  1.00  0.00    +0.016 A 
BRANCH  12  17
ATOM     17  N   UNL     1     -20.158  -5.530  12.706  1.00  0.00    -0.399 N 
ATOM     18  H   UNL     1     -19.162  -5.705  12.602  1.00  0.00    +0.156 HD
ATOM     19  H   UNL     1     -20.451  -5.555  13.678  1.00  0.00    +0.156 HD
ENDBRANCH  12  17
ENDBRANCH   8  11
ENDBRANCH   1   7
BRANCH   4  20
ATOM     20  C   UNL     1     -26.233   4.322   9.188  1.00  0.00    +0.255 C 
ATOM     21  O   UNL     1     -27.275   4.609   9.765  1.00  0.00    -0.269 OA
ATOM     22  N   UNL     1     -25.623   5.038   8.173  1.00  0.00    -0.322 N 
ATOM     23  H   UNL     1     -24.851   4.588   7.697  1.00  0.00    +0.170 HD
BRANCH  22  24
ATOM     24  C   UNL     1     -26.019   6.287   7.650  1.00  0.00    +0.042 A 
ATOM     25  C   UNL     1     -27.283   6.846   7.834  1.00  0.00    +0.035 A 
ATOM     26  C   UNL     1     -25.071   7.004   6.921  1.00  0.00    +0.027 A 
ATOM     27  C   UNL     1     -27.620   8.099   7.287  1.00  0.00    -0.011 A 
ATOM     28  C   UNL     1     -25.387   8.250   6.366  1.00  0.00    +0.015 A 
ATOM     29  C   UNL     1     -28.900   8.636   7.502  1.00  0.00    +0.032 A 
ATOM     30  C   UNL     1     -26.669   8.823   6.525  1.00  0.00    +0.024 A 
ATOM     31  C   UNL     1     -29.248   9.875   6.962  1.00  0.00    +0.098 A 
ATOM     32  C   UNL     1     -27.063  10.074   5.986  1.00  0.00    +0.124 A 
ATOM     33  C   UNL     1     -28.332  10.601   6.208  1.00  0.00    +0.069 A 
BRANCH  31  34
ATOM     34  S   UNL     1     -30.854  10.552   7.255  1.00  0.00    +0.294 S 
ATOM     35  O   UNL     1     -31.710   9.508   7.778  1.00  0.00    -0.194 OA
ATOM     36  O   UNL     1     -30.701  11.815   7.943  1.00  0.00    -0.194 OA
BRANCH  34  37
ATOM     37  O   UNL     1     -31.423  10.864   5.777  1.00  0.00    -0.282 OA
ATOM     38  H   UNL     1     -32.399  10.802   5.820  1.00  0.00    +0.234 HD
ENDBRANCH  34  37
ENDBRANCH  31  34
BRANCH  32  39
ATOM     39  O   UNL     1     -26.245  10.855   5.213  1.00  0.00    -0.507 OA
ATOM     40  H   UNL     1     -25.859  10.321   4.502  1.00  0.00    +0.293 HD
ENDBRANCH  32  39
ENDBRANCH  22  24
ENDBRANCH   4  20
TORSDOF 8
ENDMDL
MODEL 4
REMARK VINA RESULT:   -10.360      8.435     14.496
REMARK INTER + INTRA:         -15.155
REMARK INTER:                 -14.346
REMARK INTRA:                  -0.810
REMARK UNBOUND:                -0.859
REMARK SMILES Nc1ccc(C(=O)Nc2ccc(C(=O)Nc3ccc4c(O)cc(S(=O)(=O)O)cc4c3)cc2)cc1
REMARK SMILES IDX 9 1 10 2 11 3 12 4 31 5 32 6 8 7 6 8 7 9 5 11 2 12 3 13
REMARK SMILES IDX 34 14 4 15 33 16 1 17 13 20 14 21 15 22 16 24 30 25 17 26
REMARK SMILES IDX 29 27 18 28 28 29 19 30 23 31 20 32 22 33 24 34 25 35 26 36
REMARK SMILES IDX 27 37 21 39
REMARK H PARENT 8 10 1 18 1 19 15 23 27 38 21 40
ROOT
ATOM      1  C   UNL     1     -26.906   4.329   9.935  1.00  0.00    +0.041 A 
ATOM      2  C   UNL     1     -26.084   3.936  10.994  1.00  0.00    +0.027 A 
ATOM      3  C   UNL     1     -26.363   2.770  11.721  1.00  0.00    +0.016 A 
ATOM      4  C   UNL     1     -27.475   1.988  11.395  1.00  0.00    +0.040 A 
ATOM      5  C   UNL     1     -28.286   2.363  10.320  1.00  0.00    +0.016 A 
ATOM      6  C   UNL     1     -28.006   3.527   9.598  1.00  0.00    +0.027 A 
ENDROOT
BRANCH   1   7
ATOM      7  N   UNL     1     -26.686   5.483   9.156  1.00  0.00    -0.322 N 
ATOM      8  C   UNL     1     -25.817   5.618   8.089  1.00  0.00    +0.255 C 
ATOM      9  O   UNL     1     -25.022   4.781   7.677  1.00  0.00    -0.269 OA
ATOM     10  H   UNL     1     -27.163   6.321   9.467  1.00  0.00    +0.170 HD
BRANCH   8  11
ATOM     11  C   UNL     1     -25.851   6.948   7.420  1.00  0.00    +0.040 A 
ATOM     12  C   UNL     1     -25.846   9.428   6.091  1.00  0.00    +0.031 A 
ATOM     13  C   UNL     1     -27.023   8.925   6.656  1.00  0.00    +0.026 A 
ATOM     14  C   UNL     1     -24.659   8.711   6.260  1.00  0.00    +0.026 A 
ATOM     15  C   UNL     1     -27.037   7.681   7.295  1.00  0.00    +0.016 A 
ATOM     16  C   UNL     1     -24.662   7.465   6.894  1.00  0.00    +0.016 A 
BRANCH  12  17
ATOM     17  N   UNL     1     -25.816  10.722   5.561  1.00  0.00    -0.399 N 
ATOM     18  H   UNL     1     -25.481  10.767   4.603  1.00  0.00    +0.156 HD
ATOM     19  H   UNL     1     -26.678  11.242   5.689  1.00  0.00    +0.156 HD
ENDBRANCH  12  17
ENDBRANCH   8  11
ENDBRANCH   1   7
BRANCH   4  20
ATOM     20  C   UNL     1     -27.809   0.742  12.141  1.00  0.00    +0.255 C 
ATOM     21  O   UNL     1     -26.901  -0.036  12.406  1.00  0.00    -0.269 OA
ATOM     22  N   UNL     1     -29.154   0.574  12.423  1.00  0.00    -0.322 N 
ATOM     23  H   UNL     1     -29.794   1.235  12.003  1.00  0.00    +0.170 HD
BRANCH  22  24
ATOM     24  C   UNL     1     -29.750  -0.479  13.148  1.00  0.00    +0.042 A 
ATOM     25  C   UNL     1     -29.527  -0.719  14.503  1.00  0.00    +0.035 A 
ATOM     26  C   UNL     1     -30.629  -1.314  12.458  1.00  0.00    +0.027 A 
ATOM     27  C   UNL     1     -30.152  -1.789  15.173  1.00  0.00    -0.011 A 
ATOM     28  C   UNL     1     -31.258  -2.383  13.105  1.00  0.00    +0.015 A 
ATOM     29  C   UNL     1     -29.911  -1.994  16.542  1.00  0.00    +0.032 A 
ATOM     30  C   UNL     1     -31.028  -2.654  14.472  1.00  0.00    +0.024 A 
ATOM     31  C   UNL     1     -30.522  -3.052  17.217  1.00  0.00    +0.098 A 
ATOM     32  C   UNL     1     -31.622  -3.723  15.191  1.00  0.00    +0.124 A 
ATOM     33  C   UNL     1     -31.382  -3.917  16.549  1.00  0.00    +0.069 A 
BRANCH  31  34
ATOM     34  S   UNL     1     -30.229  -3.290  18.944  1.00  0.00    +0.294 S 
ATOM     35  O   UNL     1     -31.417  -2.900  19.674  1.00  0.00    -0.194 OA
ATOM     36  O   UNL     1     -29.623  -4.590  19.132  1.00  0.00    -0.194 OA
BRANCH  34  37
ATOM     37  O   UNL     1     -29.121  -2.175  19.310  1.00  0.00    -0.282 OA
ATOM     38  H   UNL     1     -28.303  -2.404  18.823  1.00  0.00    +0.234 HD
ENDBRANCH  34  37
ENDBRANCH  31  34
BRANCH  32  39
ATOM     39  O   UNL     1     -32.465  -4.640  14.621  1.00  0.00    -0.507 OA
ATOM     40  H   UNL     1     -31.954  -5.263  14.082  1.00  0.00    +0.293 HD
ENDBRANCH  32  39
ENDBRANCH  22  24
ENDBRANCH   4  20
TORSDOF 8
ENDMDL
MODEL 5
REMARK VINA RESULT:    -9.657      1.870      3.097
REMARK INTER + INTRA:         -14.186
REMARK INTER:                 -13.765
REMARK INTRA:                  -0.421
REMARK UNBOUND:                -0.859
REMARK SMILES Nc1ccc(C(=O)Nc2ccc(C(=O)Nc3ccc4c(O)cc(S(=O)(=O)O)cc4c3)cc2)cc1
REMARK SMILES IDX 9 1 10 2 11 3 12 4 31 5 32 6 8 7 6 8 7 9 5 11 2 12 3 13
REMARK SMILES IDX 34 14 4 15 33 16 1 17 13 20 14 21 15 22 16 24 30 25 17 26
REMARK SMILES IDX 29 27 18 28 28 29 19 30 23 31 20 32 22 33 24 34 25 35 26 36
REMARK SMILES IDX 27 37 21 39
REMARK H PARENT 8 10 1 18 1 19 15 23 27 38 21 40
ROOT
ATOM      1  C   UNL     1     -37.419   2.875  10.726  1.00  0.00    +0.041 A 
ATOM      2  C   UNL     1     -36.083   2.466  10.709  1.00  0.00    +0.027 A 
ATOM      3  C   UNL     1     -35.114   3.220  10.034  1.00  0.00    +0.016 A 
ATOM      4  C   UNL     1     -35.476   4.392   9.364  1.00  0.00    +0.040 A 
ATOM      5  C   UNL     1     -36.807   4.819   9.399  1.00  0.00    +0.016 A 
ATOM      6  C   UNL     1     -37.771   4.063  10.073  1.00  0.00    +0.027 A 
ENDROOT
BRANCH   1   7
ATOM      7  N   UNL     1     -38.446   2.172  11.388  1.00  0.00    -0.322 N 
ATOM      8  C   UNL     1     -38.592   0.801  11.488  1.00  0.00    +0.255 C 
ATOM      9  O   UNL     1     -37.897  -0.054  10.951  1.00  0.00    -0.269 OA
ATOM     10  H   UNL     1     -39.197   2.740  11.762  1.00  0.00    +0.170 HD
BRANCH   8  11
ATOM     11  C   UNL     1     -39.751   0.354  12.311  1.00  0.00    +0.040 A 
ATOM     12  C   UNL     1     -41.952  -0.394  13.895  1.00  0.00    +0.031 A 
ATOM     13  C   UNL     1     -41.699  -1.037  12.679  1.00  0.00    +0.026 A 
ATOM     14  C   UNL     1     -41.052   0.576  14.343  1.00  0.00    +0.026 A 
ATOM     15  C   UNL     1     -40.621  -0.651  11.874  1.00  0.00    +0.016 A 
ATOM     16  C   UNL     1     -39.974   0.972  13.546  1.00  0.00    +0.016 A 
BRANCH  12  17
ATOM     17  N   UNL     1     -42.958  -0.866  14.744  1.00  0.00    -0.399 N 
ATOM     18  H   UNL     1     -43.884  -0.865  14.327  1.00  0.00    +0.156 HD
ATOM     19  H   UNL     1     -42.741  -1.751  15.193  1.00  0.00    +0.156 HD
ENDBRANCH  12  17
ENDBRANCH   8  11
ENDBRANCH   1   7
BRANCH   4  20
ATOM     20  C   UNL     1     -34.479   5.224   8.633  1.00  0.00    +0.255 C 
ATOM     21  O   UNL     1     -34.822   5.747   7.579  1.00  0.00    -0.269 OA
ATOM     22  N   UNL     1     -33.225   5.279   9.216  1.00  0.00    -0.322 N 
ATOM     23  H   UNL     1     -33.062   4.669  10.006  1.00  0.00    +0.170 HD
BRANCH  22  24
ATOM     24  C   UNL     1     -32.108   6.018   8.773  1.00  0.00    +0.042 A 
ATOM     25  C   UNL     1     -32.171   7.336   8.321  1.00  0.00    +0.035 A 
ATOM     26  C   UNL     1     -30.866   5.384   8.810  1.00  0.00    +0.027 A 
ATOM     27  C   UNL     1     -31.019   8.021   7.890  1.00  0.00    -0.011 A 
ATOM     28  C   UNL     1     -29.710   6.048   8.384  1.00  0.00    +0.015 A 
ATOM     29  C   UNL     1     -31.120   9.352   7.451  1.00  0.00    +0.032 A 
ATOM     30  C   UNL     1     -29.758   7.375   7.904  1.00  0.00    +0.024 A 
ATOM     31  C   UNL     1     -29.986  10.042   7.018  1.00  0.00    +0.098 A 
ATOM     32  C   UNL     1     -28.632   8.107   7.448  1.00  0.00    +0.124 A 
ATOM     33  C   UNL     1     -28.739   9.427   7.020  1.00  0.00    +0.069 A 
BRANCH  31  34
ATOM     34  S   UNL     1     -30.119  11.723   6.487  1.00  0.00    +0.294 S 
ATOM     35  O   UNL     1     -30.253  12.569   7.655  1.00  0.00    -0.194 OA
ATOM     36  O   UNL     1     -29.102  11.971   5.491  1.00  0.00    -0.194 OA
BRANCH  34  37
ATOM     37  O   UNL     1     -31.554  11.788   5.751  1.00  0.00    -0.282 OA
ATOM     38  H   UNL     1     -31.839  10.866   5.583  1.00  0.00    +0.234 HD
ENDBRANCH  34  37
ENDBRANCH  31  34
BRANCH  32  39
ATOM     39  O   UNL     1     -27.366   7.586   7.390  1.00  0.00    -0.507 OA
ATOM     40  H   UNL     1     -27.380   6.659   7.670  1.00  0.00    +0.293 HD
ENDBRANCH  32  39
ENDBRANCH  22  24
ENDBRANCH   4  20
TORSDOF 8
ENDMDL
MODEL 6
REMARK VINA RESULT:    -9.277      8.471     14.308
REMARK INTER + INTRA:         -13.660
REMARK INTER:                 -12.888
REMARK INTRA:                  -0.772
REMARK UNBOUND:                -0.859
REMARK SMILES Nc1ccc(C(=O)Nc2ccc(C(=O)Nc3ccc4c(O)cc(S(=O)(=O)O)cc4c3)cc2)cc1
REMARK SMILES IDX 9 1 10 2 11 3 12 4 31 5 32 6 8 7 6 8 7 9 5 11 2 12 3 13
REMARK SMILES IDX 34 14 4 15 33 16 1 17 13 20 14 21 15 22 16 24 30 25 17 26
REMARK SMILES IDX 29 27 18 28 28 29 19 30 23 31 20 32 22 33 24 34 25 35 26 36
REMARK SMILES IDX 27 37 21 39
REMARK H PARENT 8 10 1 18 1 19 15 23 27 38 21 40
ROOT
ATOM      1  C   UNL     1     -26.037   5.089   8.742  1.00  0.00    +0.041 A 
ATOM      2  C   UNL     1     -25.126   4.908   9.786  1.00  0.00    +0.027 A 
ATOM      3  C   UNL     1     -25.069   3.693  10.482  1.00  0.00    +0.016 A 
ATOM      4  C   UNL     1     -25.931   2.647  10.141  1.00  0.00    +0.040 A 
ATOM      5  C   UNL     1     -26.827   2.814   9.081  1.00  0.00    +0.016 A 
ATOM      6  C   UNL     1     -26.882   4.028   8.389  1.00  0.00    +0.027 A 
ENDROOT
BRANCH   1   7
ATOM      7  N   UNL     1     -26.147   6.278   7.993  1.00  0.00    -0.322 N 
ATOM      8  C   UNL     1     -27.153   7.225   8.070  1.00  0.00    +0.255 C 
ATOM      9  O   UNL     1     -28.172   7.161   8.746  1.00  0.00    -0.269 OA
ATOM     10  H   UNL     1     -25.452   6.407   7.268  1.00  0.00    +0.170 HD
BRANCH   8  11
ATOM     11  C   UNL     1     -26.960   8.413   7.192  1.00  0.00    +0.040 A 
ATOM     12  C   UNL     1     -26.531  10.603   5.479  1.00  0.00    +0.031 A 
ATOM     13  C   UNL     1     -27.788  10.383   6.052  1.00  0.00    +0.026 A 
ATOM     14  C   UNL     1     -25.476   9.758   5.829  1.00  0.00    +0.026 A 
ATOM     15  C   UNL     1     -28.014   9.280   6.883  1.00  0.00    +0.016 A 
ATOM     16  C   UNL     1     -25.690   8.652   6.657  1.00  0.00    +0.016 A 
BRANCH  12  17
ATOM     17  N   UNL     1     -26.286  11.770   4.749  1.00  0.00    -0.399 N 
ATOM     18  H   UNL     1     -25.301  11.948   4.576  1.00  0.00    +0.156 HD
ATOM     19  H   UNL     1     -26.844  11.856   3.905  1.00  0.00    +0.156 HD
ENDBRANCH  12  17
ENDBRANCH   8  11
ENDBRANCH   1   7
BRANCH   4  20
ATOM     20  C   UNL     1     -25.906   1.339  10.856  1.00  0.00    +0.255 C 
ATOM     21  O   UNL     1     -24.950   1.093  11.580  1.00  0.00    -0.269 OA
ATOM     22  N   UNL     1     -26.973   0.503  10.580  1.00  0.00    -0.322 N 
ATOM     23  H   UNL     1     -27.603   0.794   9.842  1.00  0.00    +0.170 HD
BRANCH  22  24
ATOM     24  C   UNL     1     -27.232  -0.766  11.139  1.00  0.00    +0.042 A 
ATOM     25  C   UNL     1     -28.265  -1.028  12.038  1.00  0.00    +0.035 A 
ATOM     26  C   UNL     1     -26.406  -1.818  10.747  1.00  0.00    +0.027 A 
ATOM     27  C   UNL     1     -28.474  -2.318  12.564  1.00  0.00    -0.011 A 
ATOM     28  C   UNL     1     -26.595  -3.107  11.260  1.00  0.00    +0.015 A 
ATOM     29  C   UNL     1     -29.532  -2.546  13.459  1.00  0.00    +0.032 A 
ATOM     30  C   UNL     1     -27.623  -3.387  12.187  1.00  0.00    +0.024 A 
ATOM     31  C   UNL     1     -29.747  -3.819  13.990  1.00  0.00    +0.098 A 
ATOM     32  C   UNL     1     -27.869  -4.663  12.755  1.00  0.00    +0.124 A 
ATOM     33  C   UNL     1     -28.923  -4.882  13.638  1.00  0.00    +0.069 A 
BRANCH  31  34
ATOM     34  S   UNL     1     -31.093  -4.101  15.101  1.00  0.00    +0.294 S 
ATOM     35  O   UNL     1     -32.334  -4.002  14.361  1.00  0.00    -0.194 OA
ATOM     36  O   UNL     1     -30.788  -5.263  15.905  1.00  0.00    -0.194 OA
BRANCH  34  37
ATOM     37  O   UNL     1     -31.076  -2.813  16.072  1.00  0.00    -0.282 OA
ATOM     38  H   UNL     1     -31.003  -2.018  15.503  1.00  0.00    +0.234 HD
ENDBRANCH  34  37
ENDBRANCH  31  34
BRANCH  32  39
ATOM     39  O   UNL     1     -27.103  -5.767  12.490  1.00  0.00    -0.507 OA
ATOM     40  H   UNL     1     -26.645  -6.049  13.296  1.00  0.00    +0.293 HD
ENDBRANCH  32  39
ENDBRANCH  22  24
ENDBRANCH   4  20
TORSDOF 8
ENDMDL
