REMARK SMILES O=C1C(O)=C(C2CCCCC2)C(=O)c2ccccc21
REMARK SMILES IDX 3 1 5 2 12 3 13 4 14 5 19 6 18 7 17 8 16 9 15 10 2 11 1 12
REMARK SMILES IDX 4 13 6 15 7 16 11 17 8 18 10 19 9 20
REMARK H PARENT 4 14
ROOT
ATOM      1  C   UNL     1       0.526  -1.089  -0.712  1.00  0.00    +0.171 C 
ATOM      2  C   UNL     1       0.127  -0.051   0.044  1.00  0.00    +0.049 C 
ATOM      3  C   UNL     1       1.158   0.770   0.753  1.00  0.00    +0.193 C 
ATOM      4  O   UNL     1       0.849   1.727   1.455  1.00  0.00    -0.289 OA
ATOM      5  C   UNL     1       2.584   0.416   0.602  1.00  0.00    +0.034 A 
ATOM      6  C   UNL     1       2.970  -0.662  -0.185  1.00  0.00    +0.037 A 
ATOM      7  C   UNL     1       4.325  -0.990  -0.322  1.00  0.00    +0.013 A 
ATOM      8  C   UNL     1       5.294  -0.231   0.335  1.00  0.00    +0.001 A 
ATOM      9  C   UNL     1       4.912   0.852   1.126  1.00  0.00    +0.001 A 
ATOM     10  C   UNL     1       3.561   1.176   1.261  1.00  0.00    +0.013 A 
ATOM     11  C   UNL     1       1.956  -1.462  -0.877  1.00  0.00    +0.228 C 
ATOM     12  O   UNL     1       2.241  -2.424  -1.584  1.00  0.00    -0.285 OA
ENDROOT
BRANCH   1  13
ATOM     13  O   UNL     1      -0.377  -1.888  -1.394  1.00  0.00    -0.504 OA
ATOM     14  H   UNL     1       0.170  -2.559  -1.858  1.00  0.00    +0.293 HD
ENDBRANCH   1  13
BRANCH   2  15
ATOM     15  C   UNL     1      -1.324   0.371   0.244  1.00  0.00    +0.027 C 
ATOM     16  C   UNL     1      -1.995   0.827  -1.065  1.00  0.00    +0.008 C 
ATOM     17  C   UNL     1      -2.162  -0.708   0.955  1.00  0.00    +0.008 C 
ATOM     18  C   UNL     1      -3.434   1.283  -0.827  1.00  0.00    +0.001 C 
ATOM     19  C   UNL     1      -3.601  -0.241   1.179  1.00  0.00    +0.001 C 
ATOM     20  C   UNL     1      -4.257   0.207  -0.123  1.00  0.00    +0.000 C 
ENDBRANCH   2  15
TORSDOF 2
