MODEL 1
REMARK VINA RESULT:   -10.065      0.000      0.000
REMARK INTER + INTRA:         -12.122
REMARK INTER:                 -11.831
REMARK INTRA:                  -0.291
REMARK UNBOUND:                -0.291
REMARK SMILES Cc1nc(Nc2cccc(Cl)c2)c2cnn(-c3ccc(Cl)cc3)c2n1
REMARK SMILES IDX 1 1 2 2 3 3 4 4 13 5 14 6 15 7 16 8 24 9 25 10 5 11 6 13
REMARK SMILES IDX 12 14 7 15 10 16 8 17 9 18 11 19 17 20 18 21 23 22 19 23
REMARK SMILES IDX 22 24 20 25 21 26
REMARK H PARENT 5 12
ROOT
ATOM      1  C   UNL     1     -22.590   2.105  10.710  1.00  0.00    +0.090 C 
ATOM      2  C   UNL     1     -24.087   2.168  10.660  1.00  0.00    +0.130 A 
ATOM      3  N   UNL     1     -24.754   1.235  11.367  1.00  0.00    -0.215 NA
ATOM      4  C   UNL     1     -26.109   1.233  11.396  1.00  0.00    +0.145 A 
ATOM      5  C   UNL     1     -26.758   2.245  10.670  1.00  0.00    +0.082 A 
ATOM      6  C   UNL     1     -28.080   2.638  10.409  1.00  0.00    +0.150 A 
ATOM      7  N   UNL     1     -28.163   3.712   9.628  1.00  0.00    -0.174 NA
ATOM      8  N   UNL     1     -26.863   4.046   9.358  1.00  0.00    -0.215 N 
ATOM      9  C   UNL     1     -25.980   3.163   9.983  1.00  0.00    +0.168 A 
ATOM     10  N   UNL     1     -24.633   3.168   9.952  1.00  0.00    -0.213 NA
ENDROOT
BRANCH   4  11
ATOM     11  N   UNL     1     -26.834   0.272  12.119  1.00  0.00    -0.339 N 
ATOM     12  H   UNL     1     -26.342  -0.602  12.237  1.00  0.00    +0.168 HD
BRANCH  11  13
ATOM     13  C   UNL     1     -28.111   0.290  12.710  1.00  0.00    +0.041 A 
ATOM     14  C   UNL     1     -29.208  -0.435  12.231  1.00  0.00    +0.046 A 
ATOM     15  C   UNL     1     -28.303   1.083  13.857  1.00  0.00    +0.026 A 
ATOM     16  C   UNL     1     -30.447  -0.368  12.876  1.00  0.00    +0.043 A 
ATOM     17  C   UNL     1     -29.543   1.151  14.501  1.00  0.00    +0.004 A 
ATOM     18  C   UNL     1     -30.619   0.422  14.008  1.00  0.00    +0.020 A 
ATOM     19 Cl   UNL     1     -31.778  -1.273  12.262  1.00  0.00    -0.084 Cl
ENDBRANCH  11  13
ENDBRANCH   4  11
BRANCH   8  20
ATOM     20  C   UNL     1     -26.584   5.177   8.528  1.00  0.00    +0.067 A 
ATOM     21  C   UNL     1     -27.543   6.203   8.426  1.00  0.00    +0.030 A 
ATOM     22  C   UNL     1     -25.385   5.299   7.813  1.00  0.00    +0.030 A 
ATOM     23  C   UNL     1     -27.306   7.323   7.625  1.00  0.00    +0.023 A 
ATOM     24  C   UNL     1     -25.152   6.423   7.011  1.00  0.00    +0.023 A 
ATOM     25  C   UNL     1     -26.111   7.429   6.920  1.00  0.00    +0.041 A 
ATOM     26 Cl   UNL     1     -25.816   8.807   5.933  1.00  0.00    -0.084 Cl
ENDBRANCH   8  20
TORSDOF 3
ENDMDL
MODEL 2
REMARK VINA RESULT:   -10.006      6.609     10.879
REMARK INTER + INTRA:         -12.052
REMARK INTER:                 -11.398
REMARK INTRA:                  -0.655
REMARK UNBOUND:                -0.291
REMARK SMILES Cc1nc(Nc2cccc(Cl)c2)c2cnn(-c3ccc(Cl)cc3)c2n1
REMARK SMILES IDX 1 1 2 2 3 3 4 4 13 5 14 6 15 7 16 8 24 9 25 10 5 11 6 13
REMARK SMILES IDX 12 14 7 15 10 16 8 17 9 18 11 19 17 20 18 21 23 22 19 23
REMARK SMILES IDX 22 24 20 25 21 26
REMARK H PARENT 5 12
ROOT
ATOM      1  C   UNL     1     -34.414   6.595   4.690  1.00  0.00    +0.090 C 
ATOM      2  C   UNL     1     -33.623   6.471   5.956  1.00  0.00    +0.130 A 
ATOM      3  N   UNL     1     -32.444   7.122   5.999  1.00  0.00    -0.215 NA
ATOM      4  C   UNL     1     -31.676   7.082   7.115  1.00  0.00    +0.145 A 
ATOM      5  C   UNL     1     -32.179   6.347   8.202  1.00  0.00    +0.082 A 
ATOM      6  C   UNL     1     -31.770   6.030   9.507  1.00  0.00    +0.150 A 
ATOM      7  N   UNL     1     -32.645   5.270  10.161  1.00  0.00    -0.174 NA
ATOM      8  N   UNL     1     -33.667   5.075   9.270  1.00  0.00    -0.215 N 
ATOM      9  C   UNL     1     -33.407   5.723   8.061  1.00  0.00    +0.168 A 
ATOM     10  N   UNL     1     -34.173   5.760   6.953  1.00  0.00    -0.213 NA
ENDROOT
BRANCH   4  11
ATOM     11  N   UNL     1     -30.441   7.745   7.190  1.00  0.00    -0.339 N 
ATOM     12  H   UNL     1     -29.680   7.150   7.487  1.00  0.00    +0.168 HD
BRANCH  11  13
ATOM     13  C   UNL     1     -30.056   9.074   6.933  1.00  0.00    +0.041 A 
ATOM     14  C   UNL     1     -28.796   9.448   6.456  1.00  0.00    +0.046 A 
ATOM     15  C   UNL     1     -30.996  10.095   7.167  1.00  0.00    +0.026 A 
ATOM     16  C   UNL     1     -28.489  10.792   6.223  1.00  0.00    +0.043 A 
ATOM     17  C   UNL     1     -30.688  11.440   6.935  1.00  0.00    +0.004 A 
ATOM     18  C   UNL     1     -29.429  11.790   6.461  1.00  0.00    +0.020 A 
ATOM     19 Cl   UNL     1     -26.927  11.221   5.635  1.00  0.00    -0.084 Cl
ENDBRANCH  11  13
ENDBRANCH   4  11
BRANCH   8  20
ATOM     20  C   UNL     1     -34.796   4.286   9.657  1.00  0.00    +0.067 A 
ATOM     21  C   UNL     1     -35.807   4.876  10.439  1.00  0.00    +0.030 A 
ATOM     22  C   UNL     1     -34.931   2.943   9.280  1.00  0.00    +0.030 A 
ATOM     23  C   UNL     1     -36.925   4.137  10.835  1.00  0.00    +0.023 A 
ATOM     24  C   UNL     1     -36.052   2.205   9.681  1.00  0.00    +0.023 A 
ATOM     25  C   UNL     1     -37.043   2.804  10.455  1.00  0.00    +0.041 A 
ATOM     26 Cl   UNL     1     -38.417   1.891  10.941  1.00  0.00    -0.084 Cl
ENDBRANCH   8  20
TORSDOF 3
ENDMDL
MODEL 3
REMARK VINA RESULT:    -9.979      3.860      8.606
REMARK INTER + INTRA:         -12.020
REMARK INTER:                 -11.802
REMARK INTRA:                  -0.218
REMARK UNBOUND:                -0.291
REMARK SMILES Cc1nc(Nc2cccc(Cl)c2)c2cnn(-c3ccc(Cl)cc3)c2n1
REMARK SMILES IDX 1 1 2 2 3 3 4 4 13 5 14 6 15 7 16 8 24 9 25 10 5 11 6 13
REMARK SMILES IDX 12 14 7 15 10 16 8 17 9 18 11 19 17 20 18 21 23 22 19 23
REMARK SMILES IDX 22 24 20 25 21 26
REMARK H PARENT 5 12
ROOT
ATOM      1  C   UNL     1     -24.256   8.094   6.925  1.00  0.00    +0.090 C 
ATOM      2  C   UNL     1     -25.515   7.446   7.416  1.00  0.00    +0.130 A 
ATOM      3  N   UNL     1     -26.669   8.088   7.150  1.00  0.00    -0.215 NA
ATOM      4  C   UNL     1     -27.855   7.560   7.538  1.00  0.00    +0.145 A 
ATOM      5  C   UNL     1     -27.809   6.327   8.209  1.00  0.00    +0.082 A 
ATOM      6  C   UNL     1     -28.726   5.429   8.777  1.00  0.00    +0.150 A 
ATOM      7  N   UNL     1     -28.147   4.357   9.313  1.00  0.00    -0.174 NA
ATOM      8  N   UNL     1     -26.808   4.543   9.099  1.00  0.00    -0.215 N 
ATOM      9  C   UNL     1     -26.571   5.742   8.425  1.00  0.00    +0.168 A 
ATOM     10  N   UNL     1     -25.390   6.265   8.041  1.00  0.00    -0.213 NA
ENDROOT
BRANCH   4  11
ATOM     11  N   UNL     1     -29.075   8.206   7.281  1.00  0.00    -0.339 N 
ATOM     12  H   UNL     1     -29.878   7.597   7.352  1.00  0.00    +0.168 HD
BRANCH  11  13
ATOM     13  C   UNL     1     -29.396   9.534   6.943  1.00  0.00    +0.041 A 
ATOM     14  C   UNL     1     -28.534  10.402   6.266  1.00  0.00    +0.046 A 
ATOM     15  C   UNL     1     -30.665  10.024   7.306  1.00  0.00    +0.026 A 
ATOM     16  C   UNL     1     -28.927  11.710   5.963  1.00  0.00    +0.043 A 
ATOM     17  C   UNL     1     -31.058  11.332   7.004  1.00  0.00    +0.004 A 
ATOM     18  C   UNL     1     -30.185  12.179   6.330  1.00  0.00    +0.020 A 
ATOM     19 Cl   UNL     1     -27.842  12.755   5.128  1.00  0.00    -0.084 Cl
ENDBRANCH  11  13
ENDBRANCH   4  11
BRANCH   8  20
ATOM     20  C   UNL     1     -25.878   3.558   9.558  1.00  0.00    +0.067 A 
ATOM     21  C   UNL     1     -26.102   2.205   9.238  1.00  0.00    +0.030 A 
ATOM     22  C   UNL     1     -24.750   3.894  10.317  1.00  0.00    +0.030 A 
ATOM     23  C   UNL     1     -25.215   1.214   9.669  1.00  0.00    +0.023 A 
ATOM     24  C   UNL     1     -23.865   2.899  10.749  1.00  0.00    +0.023 A 
ATOM     25  C   UNL     1     -24.100   1.565  10.423  1.00  0.00    +0.041 A 
ATOM     26 Cl   UNL     1     -23.006   0.348  10.955  1.00  0.00    -0.084 Cl
ENDBRANCH   8  20
TORSDOF 3
ENDMDL
MODEL 4
REMARK VINA RESULT:    -9.798      5.285     10.024
REMARK INTER + INTRA:         -11.808
REMARK INTER:                 -11.188
REMARK INTRA:                  -0.620
REMARK UNBOUND:                -0.291
REMARK SMILES Cc1nc(Nc2cccc(Cl)c2)c2cnn(-c3ccc(Cl)cc3)c2n1
REMARK SMILES IDX 1 1 2 2 3 3 4 4 13 5 14 6 15 7 16 8 24 9 25 10 5 11 6 13
REMARK SMILES IDX 12 14 7 15 10 16 8 17 9 18 11 19 17 20 18 21 23 22 19 23
REMARK SMILES IDX 22 24 20 25 21 26
REMARK H PARENT 5 12
ROOT
ATOM      1  C   UNL     1     -37.157   2.804  10.677  1.00  0.00    +0.090 C 
ATOM      2  C   UNL     1     -35.807   3.244  10.198  1.00  0.00    +0.130 A 
ATOM      3  N   UNL     1     -35.748   4.433   9.566  1.00  0.00    -0.215 NA
ATOM      4  C   UNL     1     -34.563   4.917   9.122  1.00  0.00    +0.145 A 
ATOM      5  C   UNL     1     -33.427   4.127   9.364  1.00  0.00    +0.082 A 
ATOM      6  C   UNL     1     -32.048   4.201   9.108  1.00  0.00    +0.150 A 
ATOM      7  N   UNL     1     -31.373   3.148   9.564  1.00  0.00    -0.174 NA
ATOM      8  N   UNL     1     -32.325   2.349  10.140  1.00  0.00    -0.215 N 
ATOM      9  C   UNL     1     -33.593   2.924  10.031  1.00  0.00    +0.168 A 
ATOM     10  N   UNL     1     -34.769   2.440  10.474  1.00  0.00    -0.213 NA
ENDROOT
BRANCH   4  11
ATOM     11  N   UNL     1     -34.468   6.149   8.456  1.00  0.00    -0.339 N 
ATOM     12  H   UNL     1     -35.076   6.862   8.834  1.00  0.00    +0.168 HD
BRANCH  11  13
ATOM     13  C   UNL     1     -33.692   6.584   7.366  1.00  0.00    +0.041 A 
ATOM     14  C   UNL     1     -32.531   7.355   7.486  1.00  0.00    +0.046 A 
ATOM     15  C   UNL     1     -34.104   6.222   6.069  1.00  0.00    +0.026 A 
ATOM     16  C   UNL     1     -31.811   7.747   6.353  1.00  0.00    +0.043 A 
ATOM     17  C   UNL     1     -33.385   6.616   4.936  1.00  0.00    +0.004 A 
ATOM     18  C   UNL     1     -32.233   7.382   5.079  1.00  0.00    +0.020 A 
ATOM     19 Cl   UNL     1     -30.385   8.696   6.535  1.00  0.00    -0.084 Cl
ENDBRANCH  11  13
ENDBRANCH   4  11
BRANCH   8  20
ATOM     20  C   UNL     1     -31.935   1.111  10.740  1.00  0.00    +0.067 A 
ATOM     21  C   UNL     1     -31.726  -0.012   9.917  1.00  0.00    +0.030 A 
ATOM     22  C   UNL     1     -31.750   0.979  12.123  1.00  0.00    +0.030 A 
ATOM     23  C   UNL     1     -31.343  -1.238  10.468  1.00  0.00    +0.023 A 
ATOM     24  C   UNL     1     -31.368  -0.252  12.671  1.00  0.00    +0.023 A 
ATOM     25  C   UNL     1     -31.166  -1.353  11.844  1.00  0.00    +0.041 A 
ATOM     26 Cl   UNL     1     -30.695  -2.861  12.525  1.00  0.00    -0.084 Cl
ENDBRANCH   8  20
TORSDOF 3
ENDMDL
MODEL 5
REMARK VINA RESULT:    -9.798      6.254      8.103
REMARK INTER + INTRA:         -11.807
REMARK INTER:                 -11.311
REMARK INTRA:                  -0.497
REMARK UNBOUND:                -0.291
REMARK SMILES Cc1nc(Nc2cccc(Cl)c2)c2cnn(-c3ccc(Cl)cc3)c2n1
REMARK SMILES IDX 1 1 2 2 3 3 4 4 13 5 14 6 15 7 16 8 24 9 25 10 5 11 6 13
REMARK SMILES IDX 12 14 7 15 10 16 8 17 9 18 11 19 17 20 18 21 23 22 19 23
REMARK SMILES IDX 22 24 20 25 21 26
REMARK H PARENT 5 12
ROOT
ATOM      1  C   UNL     1     -34.444   6.604   4.576  1.00  0.00    +0.090 C 
ATOM      2  C   UNL     1     -33.812   6.268   5.892  1.00  0.00    +0.130 A 
ATOM      3  N   UNL     1     -34.432   5.335   6.641  1.00  0.00    -0.215 NA
ATOM      4  C   UNL     1     -33.915   4.955   7.834  1.00  0.00    +0.145 A 
ATOM      5  C   UNL     1     -32.716   5.572   8.229  1.00  0.00    +0.082 A 
ATOM      6  C   UNL     1     -31.840   5.513   9.324  1.00  0.00    +0.150 A 
ATOM      7  N   UNL     1     -30.800   6.335   9.209  1.00  0.00    -0.174 NA
ATOM      8  N   UNL     1     -30.985   6.961   8.004  1.00  0.00    -0.215 N 
ATOM      9  C   UNL     1     -32.152   6.513   7.383  1.00  0.00    +0.168 A 
ATOM     10  N   UNL     1     -32.664   6.893   6.195  1.00  0.00    -0.213 NA
ENDROOT
BRANCH   4  11
ATOM     11  N   UNL     1     -34.539   3.990   8.640  1.00  0.00    -0.339 N 
ATOM     12  H   UNL     1     -33.981   3.159   8.782  1.00  0.00    +0.168 HD
BRANCH  11  13
ATOM     13  C   UNL     1     -35.788   3.952   9.286  1.00  0.00    +0.041 A 
ATOM     14  C   UNL     1     -36.720   4.995   9.254  1.00  0.00    +0.046 A 
ATOM     15  C   UNL     1     -36.128   2.794  10.010  1.00  0.00    +0.026 A 
ATOM     16  C   UNL     1     -37.944   4.881   9.921  1.00  0.00    +0.043 A 
ATOM     17  C   UNL     1     -37.352   2.681  10.679  1.00  0.00    +0.004 A 
ATOM     18  C   UNL     1     -38.264   3.730  10.634  1.00  0.00    +0.020 A 
ATOM     19 Cl   UNL     1     -39.071   6.183   9.863  1.00  0.00    -0.084 Cl
ENDBRANCH  11  13
ENDBRANCH   4  11
BRANCH   8  20
ATOM     20  C   UNL     1     -30.030   7.928   7.560  1.00  0.00    +0.067 A 
ATOM     21  C   UNL     1     -28.657   7.647   7.697  1.00  0.00    +0.030 A 
ATOM     22  C   UNL     1     -30.416   9.149   6.991  1.00  0.00    +0.030 A 
ATOM     23  C   UNL     1     -27.695   8.568   7.274  1.00  0.00    +0.023 A 
ATOM     24  C   UNL     1     -29.448  10.070   6.570  1.00  0.00    +0.023 A 
ATOM     25  C   UNL     1     -28.095   9.776   6.712  1.00  0.00    +0.041 A 
ATOM     26 Cl   UNL     1     -26.913  10.912   6.191  1.00  0.00    -0.084 Cl
ENDBRANCH   8  20
TORSDOF 3
ENDMDL
MODEL 6
REMARK VINA RESULT:    -9.744      3.072      5.418
REMARK INTER + INTRA:         -11.744
REMARK INTER:                 -11.463
REMARK INTRA:                  -0.281
REMARK UNBOUND:                -0.291
REMARK SMILES Cc1nc(Nc2cccc(Cl)c2)c2cnn(-c3ccc(Cl)cc3)c2n1
REMARK SMILES IDX 1 1 2 2 3 3 4 4 13 5 14 6 15 7 16 8 24 9 25 10 5 11 6 13
REMARK SMILES IDX 12 14 7 15 10 16 8 17 9 18 11 19 17 20 18 21 23 22 19 23
REMARK SMILES IDX 22 24 20 25 21 26
REMARK H PARENT 5 12
ROOT
ATOM      1  C   UNL     1     -30.375   5.991   8.820  1.00  0.00    +0.090 C 
ATOM      2  C   UNL     1     -28.918   6.102   8.491  1.00  0.00    +0.130 A 
ATOM      3  N   UNL     1     -28.150   5.031   8.776  1.00  0.00    -0.215 NA
ATOM      4  C   UNL     1     -26.826   5.038   8.488  1.00  0.00    +0.145 A 
ATOM      5  C   UNL     1     -26.317   6.198   7.881  1.00  0.00    +0.082 A 
ATOM      6  C   UNL     1     -25.074   6.656   7.417  1.00  0.00    +0.150 A 
ATOM      7  N   UNL     1     -25.126   7.881   6.900  1.00  0.00    -0.174 NA
ATOM      8  N   UNL     1     -26.439   8.253   7.021  1.00  0.00    -0.215 N 
ATOM      9  C   UNL     1     -27.192   7.241   7.620  1.00  0.00    +0.168 A 
ATOM     10  N   UNL     1     -28.509   7.237   7.904  1.00  0.00    -0.213 NA
ENDROOT
BRANCH   4  11
ATOM     11  N   UNL     1     -25.999   3.941   8.777  1.00  0.00    -0.339 N 
ATOM     12  H   UNL     1     -25.184   3.881   8.181  1.00  0.00    +0.168 HD
BRANCH  11  13
ATOM     13  C   UNL     1     -26.082   2.911   9.731  1.00  0.00    +0.041 A 
ATOM     14  C   UNL     1     -26.190   1.553   9.413  1.00  0.00    +0.046 A 
ATOM     15  C   UNL     1     -26.052   3.262  11.094  1.00  0.00    +0.026 A 
ATOM     16  C   UNL     1     -26.265   0.586  10.420  1.00  0.00    +0.043 A 
ATOM     17  C   UNL     1     -26.128   2.295  12.101  1.00  0.00    +0.004 A 
ATOM     18  C   UNL     1     -26.236   0.950  11.762  1.00  0.00    +0.020 A 
ATOM     19 Cl   UNL     1     -26.399  -1.079   9.996  1.00  0.00    -0.084 Cl
ENDBRANCH  11  13
ENDBRANCH   4  11
BRANCH   8  20
ATOM     20  C   UNL     1     -26.852   9.540   6.555  1.00  0.00    +0.067 A 
ATOM     21  C   UNL     1     -25.907  10.375   5.929  1.00  0.00    +0.030 A 
ATOM     22  C   UNL     1     -28.168   9.998   6.699  1.00  0.00    +0.030 A 
ATOM     23  C   UNL     1     -26.274  11.640   5.459  1.00  0.00    +0.023 A 
ATOM     24  C   UNL     1     -28.532  11.266   6.229  1.00  0.00    +0.023 A 
ATOM     25  C   UNL     1     -27.586  12.080   5.611  1.00  0.00    +0.041 A 
ATOM     26 Cl   UNL     1     -28.040  13.636   5.035  1.00  0.00    -0.084 Cl
ENDBRANCH   8  20
TORSDOF 3
ENDMDL
MODEL 7
REMARK VINA RESULT:    -9.595      2.770      8.692
REMARK INTER + INTRA:         -11.568
REMARK INTER:                 -11.222
REMARK INTRA:                  -0.346
REMARK UNBOUND:                -0.291
REMARK SMILES Cc1nc(Nc2cccc(Cl)c2)c2cnn(-c3ccc(Cl)cc3)c2n1
REMARK SMILES IDX 1 1 2 2 3 3 4 4 13 5 14 6 15 7 16 8 24 9 25 10 5 11 6 13
REMARK SMILES IDX 12 14 7 15 10 16 8 17 9 18 11 19 17 20 18 21 23 22 19 23
REMARK SMILES IDX 22 24 20 25 21 26
REMARK H PARENT 5 12
ROOT
ATOM      1  C   UNL     1     -31.027   5.618   8.889  1.00  0.00    +0.090 C 
ATOM      2  C   UNL     1     -29.540   5.577   8.715  1.00  0.00    +0.130 A 
ATOM      3  N   UNL     1     -28.961   6.675   8.192  1.00  0.00    -0.215 NA
ATOM      4  C   UNL     1     -27.618   6.731   8.023  1.00  0.00    +0.145 A 
ATOM      5  C   UNL     1     -26.883   5.604   8.426  1.00  0.00    +0.082 A 
ATOM      6  C   UNL     1     -25.536   5.208   8.451  1.00  0.00    +0.150 A 
ATOM      7  N   UNL     1     -25.357   3.989   8.955  1.00  0.00    -0.174 NA
ATOM      8  N   UNL     1     -26.617   3.559   9.277  1.00  0.00    -0.215 N 
ATOM      9  C   UNL     1     -27.571   4.528   8.963  1.00  0.00    +0.168 A 
ATOM     10  N   UNL     1     -28.907   4.469   9.132  1.00  0.00    -0.213 NA
ENDROOT
BRANCH   4  11
ATOM     11  N   UNL     1     -26.985   7.858   7.476  1.00  0.00    -0.339 N 
ATOM     12  H   UNL     1     -25.977   7.789   7.461  1.00  0.00    +0.168 HD
BRANCH  11  13
ATOM     13  C   UNL     1     -27.479   9.064   6.946  1.00  0.00    +0.041 A 
ATOM     14  C   UNL     1     -28.613   9.727   7.428  1.00  0.00    +0.046 A 
ATOM     15  C   UNL     1     -26.792   9.647   5.865  1.00  0.00    +0.026 A 
ATOM     16  C   UNL     1     -29.041  10.926   6.849  1.00  0.00    +0.043 A 
ATOM     17  C   UNL     1     -27.222  10.846   5.285  1.00  0.00    +0.004 A 
ATOM     18  C   UNL     1     -28.352  11.488   5.780  1.00  0.00    +0.020 A 
ATOM     19 Cl   UNL     1     -30.442  11.718   7.465  1.00  0.00    -0.084 Cl
ENDBRANCH  11  13
ENDBRANCH   4  11
BRANCH   8  20
ATOM     20  C   UNL     1     -26.791   2.262   9.854  1.00  0.00    +0.067 A 
ATOM     21  C   UNL     1     -27.293   2.159  11.165  1.00  0.00    +0.030 A 
ATOM     22  C   UNL     1     -26.478   1.088   9.156  1.00  0.00    +0.030 A 
ATOM     23  C   UNL     1     -27.477   0.908  11.761  1.00  0.00    +0.023 A 
ATOM     24  C   UNL     1     -26.662  -0.163   9.758  1.00  0.00    +0.023 A 
ATOM     25  C   UNL     1     -27.160  -0.248  11.055  1.00  0.00    +0.041 A 
ATOM     26 Cl   UNL     1     -27.385  -1.789  11.786  1.00  0.00    -0.084 Cl
ENDBRANCH   8  20
TORSDOF 3
ENDMDL
MODEL 8
REMARK VINA RESULT:    -9.503      6.327     10.828
REMARK INTER + INTRA:         -11.461
REMARK INTER:                 -10.923
REMARK INTRA:                  -0.538
REMARK UNBOUND:                -0.291
REMARK SMILES Cc1nc(Nc2cccc(Cl)c2)c2cnn(-c3ccc(Cl)cc3)c2n1
REMARK SMILES IDX 1 1 2 2 3 3 4 4 13 5 14 6 15 7 16 8 24 9 25 10 5 11 6 13
REMARK SMILES IDX 12 14 7 15 10 16 8 17 9 18 11 19 17 20 18 21 23 22 19 23
REMARK SMILES IDX 22 24 20 25 21 26
REMARK H PARENT 5 12
ROOT
ATOM      1  C   UNL     1     -30.941   3.584   9.578  1.00  0.00    +0.090 C 
ATOM      2  C   UNL     1     -32.022   4.466   9.032  1.00  0.00    +0.130 A 
ATOM      3  N   UNL     1     -31.630   5.484   8.241  1.00  0.00    -0.215 NA
ATOM      4  C   UNL     1     -32.545   6.316   7.686  1.00  0.00    +0.145 A 
ATOM      5  C   UNL     1     -33.895   6.051   7.972  1.00  0.00    +0.082 A 
ATOM      6  C   UNL     1     -35.144   6.604   7.645  1.00  0.00    +0.150 A 
ATOM      7  N   UNL     1     -36.166   5.951   8.194  1.00  0.00    -0.174 NA
ATOM      8  N   UNL     1     -35.585   4.935   8.906  1.00  0.00    -0.215 N 
ATOM      9  C   UNL     1     -34.195   4.973   8.788  1.00  0.00    +0.168 A 
ATOM     10  N   UNL     1     -33.288   4.144   9.342  1.00  0.00    -0.213 NA
ENDROOT
BRANCH   4  11
ATOM     11  N   UNL     1     -32.170   7.388   6.863  1.00  0.00    -0.339 N 
ATOM     12  H   UNL     1     -32.431   7.266   5.894  1.00  0.00    +0.168 HD
BRANCH  11  13
ATOM     13  C   UNL     1     -31.501   8.599   7.121  1.00  0.00    +0.041 A 
ATOM     14  C   UNL     1     -30.149   8.825   6.842  1.00  0.00    +0.046 A 
ATOM     15  C   UNL     1     -32.235   9.654   7.696  1.00  0.00    +0.026 A 
ATOM     16  C   UNL     1     -29.556  10.059   7.126  1.00  0.00    +0.043 A 
ATOM     17  C   UNL     1     -31.641  10.889   7.981  1.00  0.00    +0.004 A 
ATOM     18  C   UNL     1     -30.295  11.091   7.695  1.00  0.00    +0.020 A 
ATOM     19 Cl   UNL     1     -27.888  10.306   6.770  1.00  0.00    -0.084 Cl
ENDBRANCH  11  13
ENDBRANCH   4  11
BRANCH   8  20
ATOM     20  C   UNL     1     -36.414   4.023   9.632  1.00  0.00    +0.067 A 
ATOM     21  C   UNL     1     -37.522   4.523  10.342  1.00  0.00    +0.030 A 
ATOM     22  C   UNL     1     -36.159   2.645   9.660  1.00  0.00    +0.030 A 
ATOM     23  C   UNL     1     -38.355   3.662  11.063  1.00  0.00    +0.023 A 
ATOM     24  C   UNL     1     -36.995   1.786  10.385  1.00  0.00    +0.023 A 
ATOM     25  C   UNL     1     -38.087   2.297  11.081  1.00  0.00    +0.041 A 
ATOM     26 Cl   UNL     1     -39.110   1.235  11.968  1.00  0.00    -0.084 Cl
ENDBRANCH   8  20
TORSDOF 3
ENDMDL
MODEL 9
REMARK VINA RESULT:    -9.382      6.316      7.729
REMARK INTER + INTRA:         -11.319
REMARK INTER:                 -10.875
REMARK INTRA:                  -0.443
REMARK UNBOUND:                -0.291
REMARK SMILES Cc1nc(Nc2cccc(Cl)c2)c2cnn(-c3ccc(Cl)cc3)c2n1
REMARK SMILES IDX 1 1 2 2 3 3 4 4 13 5 14 6 15 7 16 8 24 9 25 10 5 11 6 13
REMARK SMILES IDX 12 14 7 15 10 16 8 17 9 18 11 19 17 20 18 21 23 22 19 23
REMARK SMILES IDX 22 24 20 25 21 26
REMARK H PARENT 5 12
ROOT
ATOM      1  C   UNL     1     -30.371   3.210   9.782  1.00  0.00    +0.090 C 
ATOM      2  C   UNL     1     -31.588   3.844   9.181  1.00  0.00    +0.130 A 
ATOM      3  N   UNL     1     -32.718   3.111   9.190  1.00  0.00    -0.215 NA
ATOM      4  C   UNL     1     -33.871   3.618   8.687  1.00  0.00    +0.145 A 
ATOM      5  C   UNL     1     -33.817   4.926   8.178  1.00  0.00    +0.082 A 
ATOM      6  C   UNL     1     -34.705   5.836   7.583  1.00  0.00    +0.150 A 
ATOM      7  N   UNL     1     -34.134   6.997   7.270  1.00  0.00    -0.174 NA
ATOM      8  N   UNL     1     -32.830   6.859   7.665  1.00  0.00    -0.215 N 
ATOM      9  C   UNL     1     -32.607   5.600   8.224  1.00  0.00    +0.168 A 
ATOM     10  N   UNL     1     -31.460   5.099   8.723  1.00  0.00    -0.213 NA
ENDROOT
BRANCH   4  11
ATOM     11  N   UNL     1     -35.064   2.879   8.677  1.00  0.00    -0.339 N 
ATOM     12  H   UNL     1     -35.077   2.141   7.987  1.00  0.00    +0.168 HD
BRANCH  11  13
ATOM     13  C   UNL     1     -36.244   2.965   9.439  1.00  0.00    +0.041 A 
ATOM     14  C   UNL     1     -37.089   4.079   9.453  1.00  0.00    +0.046 A 
ATOM     15  C   UNL     1     -36.602   1.862  10.236  1.00  0.00    +0.026 A 
ATOM     16  C   UNL     1     -38.248   4.088  10.236  1.00  0.00    +0.043 A 
ATOM     17  C   UNL     1     -37.761   1.872  11.021  1.00  0.00    +0.004 A 
ATOM     18  C   UNL     1     -38.587   2.990  11.020  1.00  0.00    +0.020 A 
ATOM     19 Cl   UNL     1     -39.269   5.476  10.232  1.00  0.00    -0.084 Cl
ENDBRANCH  11  13
ENDBRANCH   4  11
BRANCH   8  20
ATOM     20  C   UNL     1     -31.918   7.944   7.471  1.00  0.00    +0.067 A 
ATOM     21  C   UNL     1     -32.370   9.262   7.676  1.00  0.00    +0.030 A 
ATOM     22  C   UNL     1     -30.587   7.739   7.085  1.00  0.00    +0.030 A 
ATOM     23  C   UNL     1     -31.507  10.347   7.496  1.00  0.00    +0.023 A 
ATOM     24  C   UNL     1     -29.726   8.829   6.904  1.00  0.00    +0.023 A 
ATOM     25  C   UNL     1     -30.188  10.126   7.111  1.00  0.00    +0.041 A 
ATOM     26 Cl   UNL     1     -29.125  11.459   6.889  1.00  0.00    -0.084 Cl
ENDBRANCH   8  20
TORSDOF 3
ENDMDL
