REMARK SMILES CC(=O)c1c2ccccc2cc2ccccc12
REMARK SMILES IDX 1 1 2 2 3 3 4 4 5 5 17 6 6 7 10 8 12 9 16 10 7 11 9 12 11 13
REMARK SMILES IDX 13 14 15 15 8 16 14 17
REMARK H PARENT
ROOT
ATOM      1  C   UNL     1      -0.634  -3.070   0.111  1.00  0.00    +0.093 C 
ATOM      2  C   UNL     1      -0.390  -2.023  -0.943  1.00  0.00    +0.161 C 
ATOM      3  O   UNL     1      -0.408  -2.268  -2.144  1.00  0.00    -0.294 OA
ENDROOT
BRANCH   2   4
ATOM      4  C   UNL     1      -0.121  -0.649  -0.468  1.00  0.00    +0.033 A 
ATOM      5  C   UNL     1       1.222  -0.278  -0.194  1.00  0.00    -0.007 A 
ATOM      6  C   UNL     1      -1.221   0.224  -0.260  1.00  0.00    -0.007 A 
ATOM      7  C   UNL     1       2.345  -1.114  -0.417  1.00  0.00    +0.009 A 
ATOM      8  C   UNL     1       1.453   1.010   0.333  1.00  0.00    -0.017 A 
ATOM      9  C   UNL     1      -0.953   1.504   0.268  1.00  0.00    -0.017 A 
ATOM     10  C   UNL     1      -2.569  -0.104  -0.550  1.00  0.00    +0.009 A 
ATOM     11  C   UNL     1       3.641  -0.692  -0.118  1.00  0.00    +0.001 A 
ATOM     12  C   UNL     1       2.764   1.421   0.631  1.00  0.00    +0.009 A 
ATOM     13  C   UNL     1       0.370   1.875   0.558  1.00  0.00    +0.017 A 
ATOM     14  C   UNL     1      -2.010   2.401   0.502  1.00  0.00    +0.009 A 
ATOM     15  C   UNL     1      -3.608   0.797  -0.314  1.00  0.00    +0.001 A 
ATOM     16  C   UNL     1       3.850   0.575   0.409  1.00  0.00    +0.001 A 
ATOM     17  C   UNL     1      -3.328   2.050   0.215  1.00  0.00    +0.001 A 
ENDBRANCH   2   4
TORSDOF 1
