REMARK SMILES O=S(=O)(O)c1cc(O)c2ccc(Nc3ccc4c(O)cc(S(=O)(=O)O)cc4c3)cc2c1
REMARK SMILES IDX 13 1 12 3 7 4 9 5 6 6 10 7 30 8 5 9 11 10 29 11 31 12 8 13
REMARK SMILES IDX 2 15 1 16 3 17 4 18 14 20 28 21 15 22 27 23 16 24 26 25
REMARK SMILES IDX 17 26 21 27 18 28 20 29 22 30 23 31 24 32 25 33 19 35
REMARK H PARENT 13 2 8 14 4 19 25 34 19 36
ROOT
ATOM      1  N   UNL     1      -0.030  -0.510   0.634  1.00  0.00    -0.355 N 
ATOM      2  H   UNL     1      -0.009  -1.248   1.330  1.00  0.00    +0.167 HD
ENDROOT
BRANCH   1   3
ATOM      3  C   UNL     1       1.231   0.040   0.348  1.00  0.00    +0.039 A 
ATOM      4  C   UNL     1       5.153   1.481  -0.549  1.00  0.00    +0.124 A 
ATOM      5  C   UNL     1       3.835   1.042  -0.272  1.00  0.00    +0.024 A 
ATOM      6  C   UNL     1       6.253   0.638  -0.413  1.00  0.00    +0.069 A 
ATOM      7  C   UNL     1       2.677   1.834  -0.434  1.00  0.00    +0.015 A 
ATOM      8  C   UNL     1       3.660  -0.286   0.189  1.00  0.00    -0.011 A 
ATOM      9  C   UNL     1       6.054  -0.667   0.023  1.00  0.00    +0.098 A 
ATOM     10  C   UNL     1       1.403   1.337  -0.132  1.00  0.00    +0.027 A 
ATOM     11  C   UNL     1       2.371  -0.761   0.493  1.00  0.00    +0.035 A 
ATOM     12  C   UNL     1       4.774  -1.129   0.334  1.00  0.00    +0.032 A 
BRANCH   4  13
ATOM     13  O   UNL     1       5.450   2.753  -0.963  1.00  0.00    -0.507 OA
ATOM     14  H   UNL     1       4.703   3.337  -0.759  1.00  0.00    +0.293 HD
ENDBRANCH   4  13
BRANCH   9  15
ATOM     15  S   UNL     1       7.445  -1.737   0.221  1.00  0.00    +0.294 S 
ATOM     16  O   UNL     1       7.905  -2.113  -1.097  1.00  0.00    -0.194 OA
ATOM     17  O   UNL     1       7.119  -2.730   1.222  1.00  0.00    -0.194 OA
BRANCH  15  18
ATOM     18  O   UNL     1       8.605  -0.807   0.848  1.00  0.00    -0.282 OA
ATOM     19  H   UNL     1       9.463  -1.126   0.498  1.00  0.00    +0.234 HD
ENDBRANCH  15  18
ENDBRANCH   9  15
ENDBRANCH   1   3
BRANCH   1  20
ATOM     20  C   UNL     1      -1.314  -0.223   0.141  1.00  0.00    +0.039 A 
ATOM     21  C   UNL     1      -2.427  -0.467   0.957  1.00  0.00    +0.035 A 
ATOM     22  C   UNL     1      -1.537   0.351  -1.109  1.00  0.00    +0.027 A 
ATOM     23  C   UNL     1      -3.738  -0.171   0.539  1.00  0.00    -0.011 A 
ATOM     24  C   UNL     1      -2.833   0.651  -1.547  1.00  0.00    +0.015 A 
ATOM     25  C   UNL     1      -4.823  -0.423   1.393  1.00  0.00    +0.032 A 
ATOM     26  C   UNL     1      -3.962   0.390  -0.742  1.00  0.00    +0.024 A 
ATOM     27  C   UNL     1      -6.125  -0.120   0.987  1.00  0.00    +0.098 A 
ATOM     28  C   UNL     1      -5.300   0.660  -1.125  1.00  0.00    +0.124 A 
ATOM     29  C   UNL     1      -6.373   0.418  -0.270  1.00  0.00    +0.069 A 
BRANCH  27  30
ATOM     30  S   UNL     1      -7.473  -0.474   2.072  1.00  0.00    +0.294 S 
ATOM     31  O   UNL     1      -7.452   0.505   3.133  1.00  0.00    -0.194 OA
ATOM     32  O   UNL     1      -8.653  -0.721   1.272  1.00  0.00    -0.194 OA
BRANCH  30  33
ATOM     33  O   UNL     1      -7.108  -1.909   2.714  1.00  0.00    -0.282 OA
ATOM     34  H   UNL     1      -7.875  -2.500   2.555  1.00  0.00    +0.234 HD
ENDBRANCH  30  33
ENDBRANCH  27  30
BRANCH  28  35
ATOM     35  O   UNL     1      -5.644   1.167  -2.350  1.00  0.00    -0.507 OA
ATOM     36  H   UNL     1      -4.907   1.043  -2.967  1.00  0.00    +0.293 HD
ENDBRANCH  28  35
ENDBRANCH   1  20
TORSDOF 8
