MODEL 1
REMARK VINA RESULT:    -9.866      0.000      0.000
REMARK INTER + INTRA:         -12.571
REMARK INTER:                 -12.172
REMARK INTRA:                  -0.399
REMARK UNBOUND:                -0.399
REMARK SMILES COC(=O)CCc1cc2ccccc2c2ccccc12
REMARK SMILES IDX 3 1 4 2 2 3 1 4 5 5 6 6 7 7 20 8 8 9 19 10 15 11 9 12 18 13
REMARK SMILES IDX 16 14 14 15 10 16 17 17 13 18 11 19 12 20
REMARK H PARENT
ROOT
ATOM      1  C   UNL     1     -32.365   7.663   6.218  1.00  0.00    +0.305 C 
ATOM      2  O   UNL     1     -32.235   8.200   5.127  1.00  0.00    -0.252 OA
ENDROOT
BRANCH   1   3
ATOM      3  O   UNL     1     -33.093   6.535   6.454  1.00  0.00    -0.469 OA
ATOM      4  C   UNL     1     -33.907   6.128   5.354  1.00  0.00    +0.282 C 
ENDBRANCH   1   3
BRANCH   1   5
ATOM      5  C   UNL     1     -31.748   8.141   7.510  1.00  0.00    +0.127 C 
BRANCH   5   6
ATOM      6  C   UNL     1     -30.982   9.450   7.305  1.00  0.00    +0.048 C 
BRANCH   6   7
ATOM      7  C   UNL     1     -29.482   9.363   7.043  1.00  0.00    -0.039 A 
ATOM      8  C   UNL     1     -28.794  10.452   6.439  1.00  0.00    -0.015 A 
ATOM      9  C   UNL     1     -28.759   8.213   7.392  1.00  0.00    +0.013 A 
ATOM     10  C   UNL     1     -29.465  11.644   6.063  1.00  0.00    +0.009 A 
ATOM     11  C   UNL     1     -27.391  10.360   6.199  1.00  0.00    -0.010 A 
ATOM     12  C   UNL     1     -27.384   8.099   7.165  1.00  0.00    -0.017 A 
ATOM     13  C   UNL     1     -28.806  12.719   5.470  1.00  0.00    +0.001 A 
ATOM     14  C   UNL     1     -26.757  11.477   5.593  1.00  0.00    +0.009 A 
ATOM     15  C   UNL     1     -26.677   9.166   6.568  1.00  0.00    -0.011 A 
ATOM     16  C   UNL     1     -26.719   6.918   7.539  1.00  0.00    +0.009 A 
ATOM     17  C   UNL     1     -27.447  12.636   5.235  1.00  0.00    +0.001 A 
ATOM     18  C   UNL     1     -25.284   8.969   6.374  1.00  0.00    +0.009 A 
ATOM     19  C   UNL     1     -25.352   6.762   7.333  1.00  0.00    +0.001 A 
ATOM     20  C   UNL     1     -24.632   7.790   6.748  1.00  0.00    +0.001 A 
ENDBRANCH   6   7
ENDBRANCH   5   6
ENDBRANCH   1   5
TORSDOF 4
ENDMDL
MODEL 2
REMARK VINA RESULT:    -9.700      2.627      5.239
REMARK INTER + INTRA:         -12.367
REMARK INTER:                 -11.993
REMARK INTRA:                  -0.374
REMARK UNBOUND:                -0.399
REMARK SMILES COC(=O)CCc1cc2ccccc2c2ccccc12
REMARK SMILES IDX 3 1 4 2 2 3 1 4 5 5 6 6 7 7 20 8 8 9 19 10 15 11 9 12 18 13
REMARK SMILES IDX 16 14 14 15 10 16 17 17 13 18 11 19 12 20
REMARK H PARENT
ROOT
ATOM      1  C   UNL     1     -25.207   6.623   7.337  1.00  0.00    +0.305 C 
ATOM      2  O   UNL     1     -25.681   5.775   6.595  1.00  0.00    -0.252 OA
ENDROOT
BRANCH   1   3
ATOM      3  O   UNL     1     -24.776   6.397   8.611  1.00  0.00    -0.469 OA
ATOM      4  C   UNL     1     -25.149   5.122   9.133  1.00  0.00    +0.282 C 
ENDBRANCH   1   3
BRANCH   1   5
ATOM      5  C   UNL     1     -25.006   8.078   6.991  1.00  0.00    +0.127 C 
BRANCH   5   6
ATOM      6  C   UNL     1     -25.894   8.494   5.816  1.00  0.00    +0.048 C 
BRANCH   6   7
ATOM      7  C   UNL     1     -27.277   9.053   6.131  1.00  0.00    -0.039 A 
ATOM      8  C   UNL     1     -27.576  10.420   5.871  1.00  0.00    -0.015 A 
ATOM      9  C   UNL     1     -28.273   8.233   6.680  1.00  0.00    +0.013 A 
ATOM     10  C   UNL     1     -26.615  11.303   5.316  1.00  0.00    +0.009 A 
ATOM     11  C   UNL     1     -28.873  10.932   6.169  1.00  0.00    -0.010 A 
ATOM     12  C   UNL     1     -29.552   8.712   6.981  1.00  0.00    -0.017 A 
ATOM     13  C   UNL     1     -26.892  12.643   5.056  1.00  0.00    +0.001 A 
ATOM     14  C   UNL     1     -29.115  12.303   5.889  1.00  0.00    +0.009 A 
ATOM     15  C   UNL     1     -29.874  10.065   6.732  1.00  0.00    -0.011 A 
ATOM     16  C   UNL     1     -30.505   7.836   7.531  1.00  0.00    +0.009 A 
ATOM     17  C   UNL     1     -28.146  13.145   5.342  1.00  0.00    +0.001 A 
ATOM     18  C   UNL     1     -31.195  10.470   7.067  1.00  0.00    +0.009 A 
ATOM     19  C   UNL     1     -31.789   8.271   7.846  1.00  0.00    +0.001 A 
ATOM     20  C   UNL     1     -32.135   9.591   7.614  1.00  0.00    +0.001 A 
ENDBRANCH   6   7
ENDBRANCH   5   6
ENDBRANCH   1   5
TORSDOF 4
ENDMDL
MODEL 3
REMARK VINA RESULT:    -9.546      0.732      3.787
REMARK INTER + INTRA:         -12.178
REMARK INTER:                 -11.761
REMARK INTRA:                  -0.417
REMARK UNBOUND:                -0.399
REMARK SMILES COC(=O)CCc1cc2ccccc2c2ccccc12
REMARK SMILES IDX 3 1 4 2 2 3 1 4 5 5 6 6 7 7 20 8 8 9 19 10 15 11 9 12 18 13
REMARK SMILES IDX 16 14 14 15 10 16 17 17 13 18 11 19 12 20
REMARK H PARENT
ROOT
ATOM      1  C   UNL     1     -32.054   7.096   6.497  1.00  0.00    +0.305 C 
ATOM      2  O   UNL     1     -31.794   7.375   5.335  1.00  0.00    -0.252 OA
ENDROOT
BRANCH   1   3
ATOM      3  O   UNL     1     -32.907   6.109   6.894  1.00  0.00    -0.469 OA
ATOM      4  C   UNL     1     -34.189   6.582   7.308  1.00  0.00    +0.282 C 
ENDBRANCH   1   3
BRANCH   1   5
ATOM      5  C   UNL     1     -31.485   7.785   7.713  1.00  0.00    +0.127 C 
BRANCH   5   6
ATOM      6  C   UNL     1     -29.977   7.548   7.826  1.00  0.00    +0.048 C 
BRANCH   6   7
ATOM      7  C   UNL     1     -29.044   8.595   7.226  1.00  0.00    -0.039 A 
ATOM      8  C   UNL     1     -27.658   8.316   7.066  1.00  0.00    -0.015 A 
ATOM      9  C   UNL     1     -29.536   9.845   6.823  1.00  0.00    +0.013 A 
ATOM     10  C   UNL     1     -27.097   7.072   7.453  1.00  0.00    +0.009 A 
ATOM     11  C   UNL     1     -26.796   9.302   6.504  1.00  0.00    -0.010 A 
ATOM     12  C   UNL     1     -28.710  10.828   6.269  1.00  0.00    -0.017 A 
ATOM     13  C   UNL     1     -25.742   6.784   7.304  1.00  0.00    +0.001 A 
ATOM     14  C   UNL     1     -25.422   8.969   6.368  1.00  0.00    +0.009 A 
ATOM     15  C   UNL     1     -27.331  10.576   6.099  1.00  0.00    -0.011 A 
ATOM     16  C   UNL     1     -29.267  12.060   5.885  1.00  0.00    +0.009 A 
ATOM     17  C   UNL     1     -24.902   7.735   6.759  1.00  0.00    +0.001 A 
ATOM     18  C   UNL     1     -26.563  11.627   5.530  1.00  0.00    +0.009 A 
ATOM     19  C   UNL     1     -28.483  13.067   5.330  1.00  0.00    +0.001 A 
ATOM     20  C   UNL     1     -27.127  12.850   5.152  1.00  0.00    +0.001 A 
ENDBRANCH   6   7
ENDBRANCH   5   6
ENDBRANCH   1   5
TORSDOF 4
ENDMDL
MODEL 4
REMARK VINA RESULT:    -9.484      2.821      5.514
REMARK INTER + INTRA:         -12.100
REMARK INTER:                 -11.767
REMARK INTRA:                  -0.333
REMARK UNBOUND:                -0.399
REMARK SMILES COC(=O)CCc1cc2ccccc2c2ccccc12
REMARK SMILES IDX 3 1 4 2 2 3 1 4 5 5 6 6 7 7 20 8 8 9 19 10 15 11 9 12 18 13
REMARK SMILES IDX 16 14 14 15 10 16 17 17 13 18 11 19 12 20
REMARK H PARENT
ROOT
ATOM      1  C   UNL     1     -25.616   5.481   8.428  1.00  0.00    +0.305 C 
ATOM      2  O   UNL     1     -24.686   5.604   9.212  1.00  0.00    -0.252 OA
ENDROOT
BRANCH   1   3
ATOM      3  O   UNL     1     -26.369   4.354   8.278  1.00  0.00    -0.469 OA
ATOM      4  C   UNL     1     -26.387   3.509   9.429  1.00  0.00    +0.282 C 
ENDBRANCH   1   3
BRANCH   1   5
ATOM      5  C   UNL     1     -26.111   6.544   7.479  1.00  0.00    +0.127 C 
BRANCH   5   6
ATOM      6  C   UNL     1     -27.552   6.946   7.802  1.00  0.00    +0.048 C 
BRANCH   6   7
ATOM      7  C   UNL     1     -28.054   8.285   7.273  1.00  0.00    -0.039 A 
ATOM      8  C   UNL     1     -29.445   8.588   7.285  1.00  0.00    -0.015 A 
ATOM      9  C   UNL     1     -27.156   9.237   6.768  1.00  0.00    +0.013 A 
ATOM     10  C   UNL     1     -30.404   7.670   7.782  1.00  0.00    +0.009 A 
ATOM     11  C   UNL     1     -29.902   9.843   6.788  1.00  0.00    -0.010 A 
ATOM     12  C   UNL     1     -27.582  10.475   6.276  1.00  0.00    -0.017 A 
ATOM     13  C   UNL     1     -31.769   7.950   7.800  1.00  0.00    +0.001 A 
ATOM     14  C   UNL     1     -31.300  10.091   6.824  1.00  0.00    +0.009 A 
ATOM     15  C   UNL     1     -28.956  10.800   6.276  1.00  0.00    -0.011 A 
ATOM     16  C   UNL     1     -26.629  11.385   5.783  1.00  0.00    +0.009 A 
ATOM     17  C   UNL     1     -32.219   9.165   7.321  1.00  0.00    +0.001 A 
ATOM     18  C   UNL     1     -29.303  12.077   5.758  1.00  0.00    +0.009 A 
ATOM     19  C   UNL     1     -27.007  12.627   5.284  1.00  0.00    +0.001 A 
ATOM     20  C   UNL     1     -28.347  12.974   5.271  1.00  0.00    +0.001 A 
ENDBRANCH   6   7
ENDBRANCH   5   6
ENDBRANCH   1   5
TORSDOF 4
ENDMDL
MODEL 5
REMARK VINA RESULT:    -9.202      1.293      1.680
REMARK INTER + INTRA:         -11.752
REMARK INTER:                 -11.388
REMARK INTRA:                  -0.364
REMARK UNBOUND:                -0.399
REMARK SMILES COC(=O)CCc1cc2ccccc2c2ccccc12
REMARK SMILES IDX 3 1 4 2 2 3 1 4 5 5 6 6 7 7 20 8 8 9 19 10 15 11 9 12 18 13
REMARK SMILES IDX 16 14 14 15 10 16 17 17 13 18 11 19 12 20
REMARK H PARENT
ROOT
ATOM      1  C   UNL     1     -33.187   6.314   7.145  1.00  0.00    +0.305 C 
ATOM      2  O   UNL     1     -34.362   6.248   6.812  1.00  0.00    -0.252 OA
ENDROOT
BRANCH   1   3
ATOM      3  O   UNL     1     -32.592   5.518   8.079  1.00  0.00    -0.469 OA
ATOM      4  C   UNL     1     -33.508   4.892   8.978  1.00  0.00    +0.282 C 
ENDBRANCH   1   3
BRANCH   1   5
ATOM      5  C   UNL     1     -32.171   7.283   6.593  1.00  0.00    +0.127 C 
BRANCH   5   6
ATOM      6  C   UNL     1     -31.342   7.913   7.715  1.00  0.00    +0.048 C 
BRANCH   6   7
ATOM      7  C   UNL     1     -29.913   8.336   7.393  1.00  0.00    -0.039 A 
ATOM      8  C   UNL     1     -29.644   9.641   6.893  1.00  0.00    -0.015 A 
ATOM      9  C   UNL     1     -28.844   7.448   7.585  1.00  0.00    +0.013 A 
ATOM     10  C   UNL     1     -30.679  10.586   6.678  1.00  0.00    +0.009 A 
ATOM     11  C   UNL     1     -28.303  10.024   6.596  1.00  0.00    -0.010 A 
ATOM     12  C   UNL     1     -27.521   7.802   7.300  1.00  0.00    -0.017 A 
ATOM     13  C   UNL     1     -30.432  11.867   6.189  1.00  0.00    +0.001 A 
ATOM     14  C   UNL     1     -28.094  11.339   6.100  1.00  0.00    +0.009 A 
ATOM     15  C   UNL     1     -27.227   9.091   6.803  1.00  0.00    -0.011 A 
ATOM     16  C   UNL     1     -26.495   6.864   7.514  1.00  0.00    +0.009 A 
ATOM     17  C   UNL     1     -29.136  12.245   5.899  1.00  0.00    +0.001 A 
ATOM     18  C   UNL     1     -25.859   9.369   6.540  1.00  0.00    +0.009 A 
ATOM     19  C   UNL     1     -25.166   7.173   7.245  1.00  0.00    +0.001 A 
ATOM     20  C   UNL     1     -24.846   8.429   6.757  1.00  0.00    +0.001 A 
ENDBRANCH   6   7
ENDBRANCH   5   6
ENDBRANCH   1   5
TORSDOF 4
ENDMDL
MODEL 6
REMARK VINA RESULT:    -7.929      4.978      8.905
REMARK INTER + INTRA:         -10.182
REMARK INTER:                  -9.715
REMARK INTRA:                  -0.467
REMARK UNBOUND:                -0.399
REMARK SMILES COC(=O)CCc1cc2ccccc2c2ccccc12
REMARK SMILES IDX 3 1 4 2 2 3 1 4 5 5 6 6 7 7 20 8 8 9 19 10 15 11 9 12 18 13
REMARK SMILES IDX 16 14 14 15 10 16 17 17 13 18 11 19 12 20
REMARK H PARENT
ROOT
ATOM      1  C   UNL     1     -32.830   7.094   5.804  1.00  0.00    +0.305 C 
ATOM      2  O   UNL     1     -32.093   7.048   4.829  1.00  0.00    -0.252 OA
ENDROOT
BRANCH   1   3
ATOM      3  O   UNL     1     -32.701   7.970   6.842  1.00  0.00    -0.469 OA
ATOM      4  C   UNL     1     -31.362   8.121   7.312  1.00  0.00    +0.282 C 
ENDBRANCH   1   3
BRANCH   1   5
ATOM      5  C   UNL     1     -34.017   6.197   6.051  1.00  0.00    +0.127 C 
BRANCH   5   6
ATOM      6  C   UNL     1     -34.654   6.485   7.413  1.00  0.00    +0.048 C 
BRANCH   6   7
ATOM      7  C   UNL     1     -34.610   5.383   8.466  1.00  0.00    -0.039 A 
ATOM      8  C   UNL     1     -35.752   5.114   9.273  1.00  0.00    -0.015 A 
ATOM      9  C   UNL     1     -33.449   4.619   8.656  1.00  0.00    +0.013 A 
ATOM     10  C   UNL     1     -36.956   5.848   9.131  1.00  0.00    +0.009 A 
ATOM     11  C   UNL     1     -35.699   4.081  10.254  1.00  0.00    -0.010 A 
ATOM     12  C   UNL     1     -33.375   3.602   9.612  1.00  0.00    -0.017 A 
ATOM     13  C   UNL     1     -38.082   5.597   9.912  1.00  0.00    +0.001 A 
ATOM     14  C   UNL     1     -36.868   3.856  11.030  1.00  0.00    +0.009 A 
ATOM     15  C   UNL     1     -34.493   3.314  10.426  1.00  0.00    -0.011 A 
ATOM     16  C   UNL     1     -32.180   2.874   9.752  1.00  0.00    +0.009 A 
ATOM     17  C   UNL     1     -38.038   4.598  10.865  1.00  0.00    +0.001 A 
ATOM     18  C   UNL     1     -34.333   2.266  11.371  1.00  0.00    +0.009 A 
ATOM     19  C   UNL     1     -32.061   1.853  10.690  1.00  0.00    +0.001 A 
ATOM     20  C   UNL     1     -33.140   1.548  11.502  1.00  0.00    +0.001 A 
ENDBRANCH   6   7
ENDBRANCH   5   6
ENDBRANCH   1   5
TORSDOF 4
ENDMDL
MODEL 7
REMARK VINA RESULT:    -7.852      4.873      9.630
REMARK INTER + INTRA:         -10.087
REMARK INTER:                  -9.742
REMARK INTRA:                  -0.345
REMARK UNBOUND:                -0.399
REMARK SMILES COC(=O)CCc1cc2ccccc2c2ccccc12
REMARK SMILES IDX 3 1 4 2 2 3 1 4 5 5 6 6 7 7 20 8 8 9 19 10 15 11 9 12 18 13
REMARK SMILES IDX 16 14 14 15 10 16 17 17 13 18 11 19 12 20
REMARK H PARENT
ROOT
ATOM      1  C   UNL     1     -32.451   7.772   5.972  1.00  0.00    +0.305 C 
ATOM      2  O   UNL     1     -32.617   7.215   4.897  1.00  0.00    -0.252 OA
ENDROOT
BRANCH   1   3
ATOM      3  O   UNL     1     -31.607   8.821   6.189  1.00  0.00    -0.469 OA
ATOM      4  C   UNL     1     -30.409   8.470   6.882  1.00  0.00    +0.282 C 
ENDBRANCH   1   3
BRANCH   1   5
ATOM      5  C   UNL     1     -33.142   7.411   7.264  1.00  0.00    +0.127 C 
BRANCH   5   6
ATOM      6  C   UNL     1     -33.228   5.893   7.439  1.00  0.00    +0.048 C 
BRANCH   6   7
ATOM      7  C   UNL     1     -34.276   5.345   8.402  1.00  0.00    -0.039 A 
ATOM      8  C   UNL     1     -33.947   4.289   9.297  1.00  0.00    -0.015 A 
ATOM      9  C   UNL     1     -35.576   5.871   8.420  1.00  0.00    +0.013 A 
ATOM     10  C   UNL     1     -32.651   3.713   9.330  1.00  0.00    +0.009 A 
ATOM     11  C   UNL     1     -34.935   3.785  10.193  1.00  0.00    -0.010 A 
ATOM     12  C   UNL     1     -36.561   5.392   9.289  1.00  0.00    -0.017 A 
ATOM     13  C   UNL     1     -32.314   2.679  10.201  1.00  0.00    +0.001 A 
ATOM     14  C   UNL     1     -34.551   2.731  11.064  1.00  0.00    +0.009 A 
ATOM     15  C   UNL     1     -36.261   4.345  10.188  1.00  0.00    -0.011 A 
ATOM     16  C   UNL     1     -37.846   5.963   9.256  1.00  0.00    +0.009 A 
ATOM     17  C   UNL     1     -33.266   2.186  11.071  1.00  0.00    +0.001 A 
ATOM     18  C   UNL     1     -37.318   3.919  11.036  1.00  0.00    +0.009 A 
ATOM     19  C   UNL     1     -38.857   5.519  10.103  1.00  0.00    +0.001 A 
ATOM     20  C   UNL     1     -38.593   4.494  10.995  1.00  0.00    +0.001 A 
ENDBRANCH   6   7
ENDBRANCH   5   6
ENDBRANCH   1   5
TORSDOF 4
ENDMDL
MODEL 8
REMARK VINA RESULT:    -7.701      5.971      9.549
REMARK INTER + INTRA:          -9.901
REMARK INTER:                  -9.501
REMARK INTRA:                  -0.400
REMARK UNBOUND:                -0.399
REMARK SMILES COC(=O)CCc1cc2ccccc2c2ccccc12
REMARK SMILES IDX 3 1 4 2 2 3 1 4 5 5 6 6 7 7 20 8 8 9 19 10 15 11 9 12 18 13
REMARK SMILES IDX 16 14 14 15 10 16 17 17 13 18 11 19 12 20
REMARK H PARENT
ROOT
ATOM      1  C   UNL     1     -31.850   0.926  10.780  1.00  0.00    +0.305 C 
ATOM      2  O   UNL     1     -30.884   1.354  11.395  1.00  0.00    -0.252 OA
ENDROOT
BRANCH   1   3
ATOM      3  O   UNL     1     -31.794   0.304   9.567  1.00  0.00    -0.469 OA
ATOM      4  C   UNL     1     -30.999  -0.883   9.560  1.00  0.00    +0.282 C 
ENDBRANCH   1   3
BRANCH   1   5
ATOM      5  C   UNL     1     -33.286   1.000  11.238  1.00  0.00    +0.127 C 
BRANCH   5   6
ATOM      6  C   UNL     1     -33.650   2.417  11.689  1.00  0.00    +0.048 C 
BRANCH   6   7
ATOM      7  C   UNL     1     -33.966   3.448  10.610  1.00  0.00    -0.039 A 
ATOM      8  C   UNL     1     -35.316   3.724  10.254  1.00  0.00    -0.015 A 
ATOM      9  C   UNL     1     -32.936   4.137   9.954  1.00  0.00    +0.013 A 
ATOM     10  C   UNL     1     -36.404   3.062  10.879  1.00  0.00    +0.009 A 
ATOM     11  C   UNL     1     -35.600   4.690   9.245  1.00  0.00    -0.010 A 
ATOM     12  C   UNL     1     -33.191   5.088   8.961  1.00  0.00    -0.017 A 
ATOM     13  C   UNL     1     -37.731   3.321  10.542  1.00  0.00    +0.001 A 
ATOM     14  C   UNL     1     -36.965   4.925   8.931  1.00  0.00    +0.009 A 
ATOM     15  C   UNL     1     -34.521   5.381   8.590  1.00  0.00    -0.011 A 
ATOM     16  C   UNL     1     -32.112   5.744   8.343  1.00  0.00    +0.009 A 
ATOM     17  C   UNL     1     -38.013   4.256   9.565  1.00  0.00    +0.001 A 
ATOM     18  C   UNL     1     -34.691   6.360   7.573  1.00  0.00    +0.009 A 
ATOM     19  C   UNL     1     -32.318   6.697   7.350  1.00  0.00    +0.001 A 
ATOM     20  C   UNL     1     -33.611   7.006   6.964  1.00  0.00    +0.001 A 
ENDBRANCH   6   7
ENDBRANCH   5   6
ENDBRANCH   1   5
TORSDOF 4
ENDMDL
MODEL 9
REMARK VINA RESULT:    -7.473      8.358     11.034
REMARK INTER + INTRA:          -9.619
REMARK INTER:                  -9.196
REMARK INTRA:                  -0.423
REMARK UNBOUND:                -0.399
REMARK SMILES COC(=O)CCc1cc2ccccc2c2ccccc12
REMARK SMILES IDX 3 1 4 2 2 3 1 4 5 5 6 6 7 7 20 8 8 9 19 10 15 11 9 12 18 13
REMARK SMILES IDX 16 14 14 15 10 16 17 17 13 18 11 19 12 20
REMARK H PARENT
ROOT
ATOM      1  C   UNL     1     -25.996   2.045   9.547  1.00  0.00    +0.305 C 
ATOM      2  O   UNL     1     -26.086   1.078   8.803  1.00  0.00    -0.252 OA
ENDROOT
BRANCH   1   3
ATOM      3  O   UNL     1     -25.249   3.158   9.298  1.00  0.00    -0.469 OA
ATOM      4  C   UNL     1     -24.770   3.811  10.474  1.00  0.00    +0.282 C 
ENDBRANCH   1   3
BRANCH   1   5
ATOM      5  C   UNL     1     -26.689   2.194  10.879  1.00  0.00    +0.127 C 
BRANCH   5   6
ATOM      6  C   UNL     1     -28.191   2.428  10.697  1.00  0.00    +0.048 C 
BRANCH   6   7
ATOM      7  C   UNL     1     -29.135   1.276  11.020  1.00  0.00    -0.039 A 
ATOM      8  C   UNL     1     -30.509   1.349  10.656  1.00  0.00    -0.015 A 
ATOM      9  C   UNL     1     -28.667   0.130  11.680  1.00  0.00    +0.013 A 
ATOM     10  C   UNL     1     -31.046   2.478   9.988  1.00  0.00    +0.009 A 
ATOM     11  C   UNL     1     -31.383   0.265  10.964  1.00  0.00    -0.010 A 
ATOM     12  C   UNL     1     -29.506  -0.945  11.992  1.00  0.00    -0.017 A 
ATOM     13  C   UNL     1     -32.388   2.565   9.625  1.00  0.00    +0.001 A 
ATOM     14  C   UNL     1     -32.744   0.392  10.576  1.00  0.00    +0.009 A 
ATOM     15  C   UNL     1     -30.873  -0.898  11.641  1.00  0.00    -0.011 A 
ATOM     16  C   UNL     1     -28.973  -2.065  12.654  1.00  0.00    +0.009 A 
ATOM     17  C   UNL     1     -33.240   1.518   9.919  1.00  0.00    +0.001 A 
ATOM     18  C   UNL     1     -31.654  -2.031  11.995  1.00  0.00    +0.009 A 
ATOM     19  C   UNL     1     -29.770  -3.157  12.984  1.00  0.00    +0.001 A 
ATOM     20  C   UNL     1     -31.114  -3.140  12.654  1.00  0.00    +0.001 A 
ENDBRANCH   6   7
ENDBRANCH   5   6
ENDBRANCH   1   5
TORSDOF 4
ENDMDL
