REMARK SMILES Nc1cccc2c1C(=O)c1ccccc1C2=O
REMARK SMILES IDX 1 1 2 4 3 5 7 6 4 7 6 8 8 9 5 10 16 11 9 12 10 13 15 14
REMARK SMILES IDX 17 15 11 16 14 17 12 18 13 19
REMARK H PARENT 1 2 1 3
ROOT
ATOM      1  N   UNL     1      -2.816  -2.049   0.329  1.00  0.00    -0.398 N 
ATOM      2  H   UNL     1      -2.046  -2.687   0.087  1.00  0.00    +0.156 HD
ATOM      3  H   UNL     1      -3.705  -2.351  -0.053  1.00  0.00    +0.156 HD
ENDROOT
BRANCH   1   4
ATOM      4  C   UNL     1      -2.486  -0.705   0.078  1.00  0.00    +0.043 A 
ATOM      5  C   UNL     1      -3.520   0.242   0.116  1.00  0.00    +0.026 A 
ATOM      6  C   UNL     1      -1.150  -0.251   0.013  1.00  0.00    +0.057 A 
ATOM      7  C   UNL     1      -3.251   1.607   0.024  1.00  0.00    +0.003 A 
ATOM      8  C   UNL     1      -0.884   1.120  -0.063  1.00  0.00    +0.036 A 
ATOM      9  C   UNL     1      -0.017  -1.212  -0.027  1.00  0.00    +0.196 C 
ATOM     10  C   UNL     1      -1.934   2.048  -0.067  1.00  0.00    +0.013 A 
ATOM     11  C   UNL     1       0.504   1.622  -0.123  1.00  0.00    +0.194 C 
ATOM     12  O   UNL     1      -0.211  -2.422  -0.110  1.00  0.00    -0.288 OA
ATOM     13  C   UNL     1       1.369  -0.705   0.001  1.00  0.00    +0.034 A 
ATOM     14  C   UNL     1       1.621   0.663  -0.050  1.00  0.00    +0.034 A 
ATOM     15  O   UNL     1       0.728   2.822  -0.225  1.00  0.00    -0.289 OA
ATOM     16  C   UNL     1       2.439  -1.608   0.063  1.00  0.00    +0.013 A 
ATOM     17  C   UNL     1       2.941   1.134  -0.036  1.00  0.00    +0.013 A 
ATOM     18  C   UNL     1       3.753  -1.138   0.079  1.00  0.00    +0.001 A 
ATOM     19  C   UNL     1       4.004   0.232   0.029  1.00  0.00    +0.001 A 
ENDBRANCH   1   4
TORSDOF 1
