REMARK SMILES COC(=O)CCc1cc2ccccc2c2ccccc12
REMARK SMILES IDX 3 1 4 2 2 3 1 4 5 5 6 6 7 7 20 8 8 9 19 10 15 11 9 12 18 13
REMARK SMILES IDX 16 14 14 15 10 16 17 17 13 18 11 19 12 20
REMARK H PARENT
ROOT
ATOM      1  C   UNL     1      -4.003  -0.446   0.093  1.00  0.00    +0.305 C 
ATOM      2  O   UNL     1      -4.441   0.595  -0.376  1.00  0.00    -0.252 OA
ENDROOT
BRANCH   1   3
ATOM      3  O   UNL     1      -4.764  -1.491   0.527  1.00  0.00    -0.469 OA
ATOM      4  C   UNL     1      -6.170  -1.281   0.392  1.00  0.00    +0.282 C 
ENDBRANCH   1   3
BRANCH   1   5
ATOM      5  C   UNL     1      -2.543  -0.777   0.283  1.00  0.00    +0.127 C 
BRANCH   5   6
ATOM      6  C   UNL     1      -1.650   0.372  -0.192  1.00  0.00    +0.048 C 
BRANCH   6   7
ATOM      7  C   UNL     1      -0.140   0.198  -0.069  1.00  0.00    -0.039 A 
ATOM      8  C   UNL     1       0.740   1.232  -0.495  1.00  0.00    -0.015 A 
ATOM      9  C   UNL     1       0.404  -0.980   0.464  1.00  0.00    +0.013 A 
ATOM     10  C   UNL     1       0.255   2.447  -1.042  1.00  0.00    +0.009 A 
ATOM     11  C   UNL     1       2.150   1.058  -0.375  1.00  0.00    -0.010 A 
ATOM     12  C   UNL     1       1.783  -1.173   0.591  1.00  0.00    -0.017 A 
ATOM     13  C   UNL     1       1.103   3.469  -1.464  1.00  0.00    +0.001 A 
ATOM     14  C   UNL     1       2.980   2.123  -0.816  1.00  0.00    +0.009 A 
ATOM     15  C   UNL     1       2.678  -0.162   0.176  1.00  0.00    -0.011 A 
ATOM     16  C   UNL     1       2.263  -2.378   1.134  1.00  0.00    +0.009 A 
ATOM     17  C   UNL     1       2.470   3.307  -1.350  1.00  0.00    +0.001 A 
ATOM     18  C   UNL     1       4.062  -0.439   0.340  1.00  0.00    +0.009 A 
ATOM     19  C   UNL     1       3.627  -2.613   1.279  1.00  0.00    +0.001 A 
ATOM     20  C   UNL     1       4.529  -1.641   0.881  1.00  0.00    +0.001 A 
ENDBRANCH   6   7
ENDBRANCH   5   6
ENDBRANCH   1   5
TORSDOF 4
