MODEL 1
REMARK VINA RESULT:   -10.404      0.000      0.000
REMARK INTER + INTRA:         -12.556
REMARK INTER:                 -12.229
REMARK INTRA:                  -0.327
REMARK UNBOUND:                -0.327
REMARK SMILES CC(=O)Oc1ccc2ccc3ccc(C(C)=O)cc3c2c1
REMARK SMILES IDX 5 1 21 2 20 3 19 4 18 5 14 6 13 7 12 8 11 9 10 10 9 11 8 12
REMARK SMILES IDX 7 13 6 14 4 15 2 16 3 17 1 18 15 19 17 20 16 21
REMARK H PARENT
ROOT
ATOM      1  C   UNL     1     -30.983   9.779   7.091  1.00  0.00    +0.131 A 
ATOM      2  C   UNL     1     -29.836   8.992   7.208  1.00  0.00    +0.056 A 
ATOM      3  C   UNL     1     -28.566   9.468   6.796  1.00  0.00    -0.007 A 
ATOM      4  C   UNL     1     -27.345   8.710   6.904  1.00  0.00    -0.010 A 
ATOM      5  C   UNL     1     -27.267   7.397   7.435  1.00  0.00    +0.021 A 
ATOM      6  C   UNL     1     -26.056   6.689   7.526  1.00  0.00    +0.018 A 
ATOM      7  C   UNL     1     -24.882   7.288   7.081  1.00  0.00    +0.012 A 
ATOM      8  C   UNL     1     -24.923   8.579   6.554  1.00  0.00    +0.009 A 
ATOM      9  C   UNL     1     -26.130   9.290   6.460  1.00  0.00    -0.018 A 
ATOM     10  C   UNL     1     -26.126  10.581   5.926  1.00  0.00    +0.009 A 
ATOM     11  C   UNL     1     -27.306  11.313   5.819  1.00  0.00    +0.009 A 
ATOM     12  C   UNL     1     -28.523  10.776   6.244  1.00  0.00    -0.017 A 
ATOM     13  C   UNL     1     -29.697  11.543   6.118  1.00  0.00    +0.012 A 
ATOM     14  C   UNL     1     -30.929  11.046   6.529  1.00  0.00    +0.048 A 
ENDROOT
BRANCH   1  15
ATOM     15  O   UNL     1     -32.201   9.204   7.475  1.00  0.00    -0.427 OA
BRANCH  15  16
ATOM     16  C   UNL     1     -32.365   7.860   7.153  1.00  0.00    +0.308 C 
ATOM     17  O   UNL     1     -32.399   6.914   7.927  1.00  0.00    -0.252 OA
ATOM     18  C   UNL     1     -32.497   7.739   5.663  1.00  0.00    +0.139 C 
ENDBRANCH  15  16
ENDBRANCH   1  15
BRANCH   6  19
ATOM     19  C   UNL     1     -26.080   5.310   8.100  1.00  0.00    +0.159 C 
ATOM     20  O   UNL     1     -25.034   4.674   8.214  1.00  0.00    -0.295 OA
ATOM     21  C   UNL     1     -27.397   4.723   8.537  1.00  0.00    +0.093 C 
ENDBRANCH   6  19
TORSDOF 3
ENDMDL
MODEL 2
REMARK VINA RESULT:   -10.396      1.651      5.839
REMARK INTER + INTRA:         -12.547
REMARK INTER:                 -12.381
REMARK INTRA:                  -0.166
REMARK UNBOUND:                -0.327
REMARK SMILES CC(=O)Oc1ccc2ccc3ccc(C(C)=O)cc3c2c1
REMARK SMILES IDX 5 1 21 2 20 3 19 4 18 5 14 6 13 7 12 8 11 9 10 10 9 11 8 12
REMARK SMILES IDX 7 13 6 14 4 15 2 16 3 17 1 18 15 19 17 20 16 21
REMARK H PARENT
ROOT
ATOM      1  C   UNL     1     -26.891   5.775   8.344  1.00  0.00    +0.131 A 
ATOM      2  C   UNL     1     -27.673   6.896   8.057  1.00  0.00    +0.056 A 
ATOM      3  C   UNL     1     -27.162   7.982   7.304  1.00  0.00    -0.007 A 
ATOM      4  C   UNL     1     -27.922   9.158   6.964  1.00  0.00    -0.010 A 
ATOM      5  C   UNL     1     -29.273   9.370   7.340  1.00  0.00    +0.021 A 
ATOM      6  C   UNL     1     -29.984  10.530   6.989  1.00  0.00    +0.018 A 
ATOM      7  C   UNL     1     -29.348  11.517   6.241  1.00  0.00    +0.012 A 
ATOM      8  C   UNL     1     -28.020  11.341   5.853  1.00  0.00    +0.009 A 
ATOM      9  C   UNL     1     -27.306  10.183   6.203  1.00  0.00    -0.018 A 
ATOM     10  C   UNL     1     -25.977  10.047   5.794  1.00  0.00    +0.009 A 
ATOM     11  C   UNL     1     -25.241   8.912   6.124  1.00  0.00    +0.009 A 
ATOM     12  C   UNL     1     -25.812   7.881   6.873  1.00  0.00    -0.017 A 
ATOM     13  C   UNL     1     -25.038   6.750   7.192  1.00  0.00    +0.012 A 
ATOM     14  C   UNL     1     -25.568   5.700   7.935  1.00  0.00    +0.048 A 
ENDROOT
BRANCH   1  15
ATOM     15  O   UNL     1     -27.466   4.775   9.139  1.00  0.00    -0.427 OA
BRANCH  15  16
ATOM     16  C   UNL     1     -26.635   3.707   9.463  1.00  0.00    +0.308 C 
ATOM     17  O   UNL     1     -26.394   2.724   8.778  1.00  0.00    -0.252 OA
ATOM     18  C   UNL     1     -26.060   3.947  10.829  1.00  0.00    +0.139 C 
ENDBRANCH  15  16
ENDBRANCH   1  15
BRANCH   6  19
ATOM     19  C   UNL     1     -31.404  10.658   7.435  1.00  0.00    +0.159 C 
ATOM     20  O   UNL     1     -31.915  11.771   7.545  1.00  0.00    -0.295 OA
ATOM     21  C   UNL     1     -32.188   9.409   7.740  1.00  0.00    +0.093 C 
ENDBRANCH   6  19
TORSDOF 3
ENDMDL
MODEL 3
REMARK VINA RESULT:   -10.113      0.941      5.624
REMARK INTER + INTRA:         -12.214
REMARK INTER:                 -11.941
REMARK INTRA:                  -0.273
REMARK UNBOUND:                -0.327
REMARK SMILES CC(=O)Oc1ccc2ccc3ccc(C(C)=O)cc3c2c1
REMARK SMILES IDX 5 1 21 2 20 3 19 4 18 5 14 6 13 7 12 8 11 9 10 10 9 11 8 12
REMARK SMILES IDX 7 13 6 14 4 15 2 16 3 17 1 18 15 19 17 20 16 21
REMARK H PARENT
ROOT
ATOM      1  C   UNL     1     -25.842   6.687   6.960  1.00  0.00    +0.131 A 
ATOM      2  C   UNL     1     -27.027   7.424   6.978  1.00  0.00    +0.056 A 
ATOM      3  C   UNL     1     -27.057   8.788   6.597  1.00  0.00    -0.007 A 
ATOM      4  C   UNL     1     -28.249   9.597   6.581  1.00  0.00    -0.010 A 
ATOM      5  C   UNL     1     -29.536   9.126   6.944  1.00  0.00    +0.021 A 
ATOM      6  C   UNL     1     -30.678   9.945   6.916  1.00  0.00    +0.018 A 
ATOM      7  C   UNL     1     -30.554  11.273   6.516  1.00  0.00    +0.012 A 
ATOM      8  C   UNL     1     -29.302  11.769   6.151  1.00  0.00    +0.009 A 
ATOM      9  C   UNL     1     -28.159  10.954   6.179  1.00  0.00    -0.018 A 
ATOM     10  C   UNL     1     -26.924  11.492   5.806  1.00  0.00    +0.009 A 
ATOM     11  C   UNL     1     -25.771  10.711   5.823  1.00  0.00    +0.009 A 
ATOM     12  C   UNL     1     -25.819   9.371   6.213  1.00  0.00    -0.017 A 
ATOM     13  C   UNL     1     -24.634   8.613   6.223  1.00  0.00    +0.012 A 
ATOM     14  C   UNL     1     -24.638   7.275   6.604  1.00  0.00    +0.048 A 
ENDROOT
BRANCH   1  15
ATOM     15  O   UNL     1     -25.902   5.359   7.403  1.00  0.00    -0.427 OA
BRANCH  15  16
ATOM     16  C   UNL     1     -26.296   5.179   8.725  1.00  0.00    +0.308 C 
ATOM     17  O   UNL     1     -27.431   5.247   9.174  1.00  0.00    -0.252 OA
ATOM     18  C   UNL     1     -25.078   4.881   9.551  1.00  0.00    +0.139 C 
ENDBRANCH  15  16
ENDBRANCH   1  15
BRANCH   6  19
ATOM     19  C   UNL     1     -31.990   9.354   7.319  1.00  0.00    +0.159 C 
ATOM     20  O   UNL     1     -32.705   9.939   8.129  1.00  0.00    -0.295 OA
ATOM     21  C   UNL     1     -32.414   8.040   6.714  1.00  0.00    +0.093 C 
ENDBRANCH   6  19
TORSDOF 3
ENDMDL
MODEL 4
REMARK VINA RESULT:    -8.921      3.835      6.989
REMARK INTER + INTRA:         -10.813
REMARK INTER:                 -10.361
REMARK INTRA:                  -0.452
REMARK UNBOUND:                -0.327
REMARK SMILES CC(=O)Oc1ccc2ccc3ccc(C(C)=O)cc3c2c1
REMARK SMILES IDX 5 1 21 2 20 3 19 4 18 5 14 6 13 7 12 8 11 9 10 10 9 11 8 12
REMARK SMILES IDX 7 13 6 14 4 15 2 16 3 17 1 18 15 19 17 20 16 21
REMARK H PARENT
ROOT
ATOM      1  C   UNL     1     -32.966   3.151  10.096  1.00  0.00    +0.131 A 
ATOM      2  C   UNL     1     -32.221   4.187   9.529  1.00  0.00    +0.056 A 
ATOM      3  C   UNL     1     -32.813   5.131   8.654  1.00  0.00    -0.007 A 
ATOM      4  C   UNL     1     -32.101   6.229   8.049  1.00  0.00    -0.010 A 
ATOM      5  C   UNL     1     -30.725   6.497   8.257  1.00  0.00    +0.021 A 
ATOM      6  C   UNL     1     -30.064   7.579   7.650  1.00  0.00    +0.018 A 
ATOM      7  C   UNL     1     -30.779   8.428   6.810  1.00  0.00    +0.012 A 
ATOM      8  C   UNL     1     -32.135   8.194   6.584  1.00  0.00    +0.009 A 
ATOM      9  C   UNL     1     -32.799   7.113   7.187  1.00  0.00    -0.018 A 
ATOM     10  C   UNL     1     -34.158   6.915   6.934  1.00  0.00    +0.009 A 
ATOM     11  C   UNL     1     -34.846   5.853   7.516  1.00  0.00    +0.009 A 
ATOM     12  C   UNL     1     -34.194   4.960   8.369  1.00  0.00    -0.017 A 
ATOM     13  C   UNL     1     -34.919   3.895   8.936  1.00  0.00    +0.012 A 
ATOM     14  C   UNL     1     -34.308   2.983   9.792  1.00  0.00    +0.048 A 
ENDROOT
BRANCH   1  15
ATOM     15  O   UNL     1     -32.283   2.236  10.908  1.00  0.00    -0.427 OA
BRANCH  15  16
ATOM     16  C   UNL     1     -31.516   1.287  10.239  1.00  0.00    +0.308 C 
ATOM     17  O   UNL     1     -31.888   0.520   9.364  1.00  0.00    -0.252 OA
ATOM     18  C   UNL     1     -30.113   1.345  10.772  1.00  0.00    +0.139 C 
ENDBRANCH  15  16
ENDBRANCH   1  15
BRANCH   6  19
ATOM     19  C   UNL     1     -28.610   7.776   7.933  1.00  0.00    +0.159 C 
ATOM     20  O   UNL     1     -28.027   7.018   8.706  1.00  0.00    -0.295 OA
ATOM     21  C   UNL     1     -27.882   8.908   7.256  1.00  0.00    +0.093 C 
ENDBRANCH   6  19
TORSDOF 3
ENDMDL
MODEL 5
REMARK VINA RESULT:    -8.450      6.323      8.713
REMARK INTER + INTRA:         -10.260
REMARK INTER:                  -9.851
REMARK INTRA:                  -0.408
REMARK UNBOUND:                -0.327
REMARK SMILES CC(=O)Oc1ccc2ccc3ccc(C(C)=O)cc3c2c1
REMARK SMILES IDX 5 1 21 2 20 3 19 4 18 5 14 6 13 7 12 8 11 9 10 10 9 11 8 12
REMARK SMILES IDX 7 13 6 14 4 15 2 16 3 17 1 18 15 19 17 20 16 21
REMARK H PARENT
ROOT
ATOM      1  C   UNL     1     -32.683   1.836  10.048  1.00  0.00    +0.131 A 
ATOM      2  C   UNL     1     -31.293   1.836  10.182  1.00  0.00    +0.056 A 
ATOM      3  C   UNL     1     -30.666   1.464  11.396  1.00  0.00    -0.007 A 
ATOM      4  C   UNL     1     -29.238   1.431  11.590  1.00  0.00    -0.010 A 
ATOM      5  C   UNL     1     -28.290   1.767  10.591  1.00  0.00    +0.021 A 
ATOM      6  C   UNL     1     -26.903   1.722  10.817  1.00  0.00    +0.018 A 
ATOM      7  C   UNL     1     -26.430   1.334  12.067  1.00  0.00    +0.012 A 
ATOM      8  C   UNL     1     -27.335   0.996  13.073  1.00  0.00    +0.009 A 
ATOM      9  C   UNL     1     -28.721   1.041  12.852  1.00  0.00    -0.018 A 
ATOM     10  C   UNL     1     -29.593   0.695  13.887  1.00  0.00    +0.009 A 
ATOM     11  C   UNL     1     -30.973   0.729  13.700  1.00  0.00    +0.009 A 
ATOM     12  C   UNL     1     -31.520   1.109  12.473  1.00  0.00    -0.017 A 
ATOM     13  C   UNL     1     -32.919   1.136  12.321  1.00  0.00    +0.012 A 
ATOM     14  C   UNL     1     -33.505   1.508  11.116  1.00  0.00    +0.048 A 
ENDROOT
BRANCH   1  15
ATOM     15  O   UNL     1     -33.214   2.269   8.826  1.00  0.00    -0.427 OA
BRANCH  15  16
ATOM     16  C   UNL     1     -33.839   3.512   8.843  1.00  0.00    +0.308 C 
ATOM     17  O   UNL     1     -33.407   4.549   9.325  1.00  0.00    -0.252 OA
ATOM     18  C   UNL     1     -35.169   3.388   8.161  1.00  0.00    +0.139 C 
ENDBRANCH  15  16
ENDBRANCH   1  15
BRANCH   6  19
ATOM     19  C   UNL     1     -25.987   2.095   9.698  1.00  0.00    +0.159 C 
ATOM     20  O   UNL     1     -25.808   1.316   8.764  1.00  0.00    -0.295 OA
ATOM     21  C   UNL     1     -25.297   3.434   9.736  1.00  0.00    +0.093 C 
ENDBRANCH   6  19
TORSDOF 3
ENDMDL
MODEL 6
REMARK VINA RESULT:    -8.218      8.780     11.376
REMARK INTER + INTRA:          -9.987
REMARK INTER:                  -9.573
REMARK INTRA:                  -0.414
REMARK UNBOUND:                -0.327
REMARK SMILES CC(=O)Oc1ccc2ccc3ccc(C(C)=O)cc3c2c1
REMARK SMILES IDX 5 1 21 2 20 3 19 4 18 5 14 6 13 7 12 8 11 9 10 10 9 11 8 12
REMARK SMILES IDX 7 13 6 14 4 15 2 16 3 17 1 18 15 19 17 20 16 21
REMARK H PARENT
ROOT
ATOM      1  C   UNL     1     -22.801  -0.187  10.121  1.00  0.00    +0.131 A 
ATOM      2  C   UNL     1     -24.098  -0.261  10.632  1.00  0.00    +0.056 A 
ATOM      3  C   UNL     1     -24.762   0.885  11.133  1.00  0.00    -0.007 A 
ATOM      4  C   UNL     1     -26.104   0.875  11.661  1.00  0.00    -0.010 A 
ATOM      5  C   UNL     1     -26.920  -0.282  11.741  1.00  0.00    +0.021 A 
ATOM      6  C   UNL     1     -28.225  -0.253  12.261  1.00  0.00    +0.018 A 
ATOM      7  C   UNL     1     -28.749   0.953  12.718  1.00  0.00    +0.012 A 
ATOM      8  C   UNL     1     -27.974   2.111  12.652  1.00  0.00    +0.009 A 
ATOM      9  C   UNL     1     -26.669   2.086  12.134  1.00  0.00    -0.018 A 
ATOM     10  C   UNL     1     -25.927   3.269  12.087  1.00  0.00    +0.009 A 
ATOM     11  C   UNL     1     -24.630   3.279  11.580  1.00  0.00    +0.009 A 
ATOM     12  C   UNL     1     -24.038   2.107  11.105  1.00  0.00    -0.017 A 
ATOM     13  C   UNL     1     -22.724   2.152  10.603  1.00  0.00    +0.012 A 
ATOM     14  C   UNL     1     -22.098   1.008  10.120  1.00  0.00    +0.048 A 
ENDROOT
BRANCH   1  15
ATOM     15  O   UNL     1     -22.206  -1.383   9.696  1.00  0.00    -0.427 OA
BRANCH  15  16
ATOM     16  C   UNL     1     -21.638  -2.165  10.697  1.00  0.00    +0.308 C 
ATOM     17  O   UNL     1     -20.879  -1.797  11.582  1.00  0.00    -0.252 OA
ATOM     18  C   UNL     1     -22.109  -3.580  10.522  1.00  0.00    +0.139 C 
ENDBRANCH  15  16
ENDBRANCH   1  15
BRANCH   6  19
ATOM     19  C   UNL     1     -29.003  -1.527  12.304  1.00  0.00    +0.159 C 
ATOM     20  O   UNL     1     -28.454  -2.572  12.649  1.00  0.00    -0.295 OA
ATOM     21  C   UNL     1     -30.461  -1.505  11.923  1.00  0.00    +0.093 C 
ENDBRANCH   6  19
TORSDOF 3
ENDMDL
MODEL 7
REMARK VINA RESULT:    -7.984      5.040      8.087
REMARK INTER + INTRA:          -9.711
REMARK INTER:                  -9.375
REMARK INTRA:                  -0.336
REMARK UNBOUND:                -0.327
REMARK SMILES CC(=O)Oc1ccc2ccc3ccc(C(C)=O)cc3c2c1
REMARK SMILES IDX 5 1 21 2 20 3 19 4 18 5 14 6 13 7 12 8 11 9 10 10 9 11 8 12
REMARK SMILES IDX 7 13 6 14 4 15 2 16 3 17 1 18 15 19 17 20 16 21
REMARK H PARENT
ROOT
ATOM      1  C   UNL     1     -33.810   5.726   7.882  1.00  0.00    +0.131 A 
ATOM      2  C   UNL     1     -33.055   4.743   8.523  1.00  0.00    +0.056 A 
ATOM      3  C   UNL     1     -33.648   3.823   9.422  1.00  0.00    -0.007 A 
ATOM      4  C   UNL     1     -32.925   2.778  10.104  1.00  0.00    -0.010 A 
ATOM      5  C   UNL     1     -31.534   2.545   9.956  1.00  0.00    +0.021 A 
ATOM      6  C   UNL     1     -30.862   1.515  10.637  1.00  0.00    +0.018 A 
ATOM      7  C   UNL     1     -31.580   0.684  11.492  1.00  0.00    +0.012 A 
ATOM      8  C   UNL     1     -32.950   0.885  11.660  1.00  0.00    +0.009 A 
ATOM      9  C   UNL     1     -33.625   1.913  10.982  1.00  0.00    -0.018 A 
ATOM     10  C   UNL     1     -34.998   2.079  11.180  1.00  0.00    +0.009 A 
ATOM     11  C   UNL     1     -35.697   3.090  10.523  1.00  0.00    +0.009 A 
ATOM     12  C   UNL     1     -35.043   3.962   9.651  1.00  0.00    -0.017 A 
ATOM     13  C   UNL     1     -35.779   4.974   9.008  1.00  0.00    +0.012 A 
ATOM     14  C   UNL     1     -35.167   5.864   8.131  1.00  0.00    +0.048 A 
ENDROOT
BRANCH   1  15
ATOM     15  O   UNL     1     -33.127   6.623   7.050  1.00  0.00    -0.427 OA
BRANCH  15  16
ATOM     16  C   UNL     1     -33.147   6.324   5.691  1.00  0.00    +0.308 C 
ATOM     17  O   UNL     1     -33.758   5.419   5.142  1.00  0.00    -0.252 OA
ATOM     18  C   UNL     1     -32.274   7.311   4.972  1.00  0.00    +0.139 C 
ENDBRANCH  15  16
ENDBRANCH   1  15
BRANCH   6  19
ATOM     19  C   UNL     1     -29.394   1.353  10.413  1.00  0.00    +0.159 C 
ATOM     20  O   UNL     1     -28.922   0.235  10.218  1.00  0.00    -0.295 OA
ATOM     21  C   UNL     1     -28.514   2.576  10.429  1.00  0.00    +0.093 C 
ENDBRANCH   6  19
TORSDOF 3
ENDMDL
