REMARK SMILES O=C1c2ccccc2C(=O)c2cc(Cl)ccc21
REMARK SMILES IDX 14 1 13 2 12 3 11 4 17 5 16 6 15 7 2 8 1 9 3 10 8 11 7 12
REMARK SMILES IDX 6 13 5 14 4 15 9 16 10 17
REMARK H PARENT
ROOT
ATOM      1 Cl   UNL     1       5.268   1.101   0.065  1.00  0.00    -0.084 Cl
ATOM      2  C   UNL     1       3.712   0.379  -0.052  1.00  0.00    +0.041 A 
ATOM      3  C   UNL     1       2.571   1.163   0.110  1.00  0.00    +0.033 A 
ATOM      4  C   UNL     1       1.304   0.571   0.014  1.00  0.00    +0.035 A 
ATOM      5  C   UNL     1       1.187  -0.795  -0.243  1.00  0.00    +0.034 A 
ATOM      6  C   UNL     1       2.339  -1.577  -0.405  1.00  0.00    +0.014 A 
ATOM      7  C   UNL     1       3.602  -0.987  -0.309  1.00  0.00    +0.021 A 
ATOM      8  C   UNL     1      -0.144  -1.426  -0.346  1.00  0.00    +0.194 C 
ATOM      9  O   UNL     1      -0.243  -2.627  -0.572  1.00  0.00    -0.289 OA
ATOM     10  C   UNL     1      -1.351  -0.593  -0.173  1.00  0.00    +0.034 A 
ATOM     11  C   UNL     1      -1.234   0.772   0.083  1.00  0.00    +0.034 A 
ATOM     12  C   UNL     1      -2.385   1.554   0.245  1.00  0.00    +0.013 A 
ATOM     13  C   UNL     1      -3.648   0.966   0.149  1.00  0.00    +0.001 A 
ATOM     14  C   UNL     1      -3.764  -0.400  -0.107  1.00  0.00    +0.001 A 
ATOM     15  C   UNL     1      -2.618  -1.181  -0.269  1.00  0.00    +0.013 A 
ATOM     16  C   UNL     1       0.097   1.403   0.186  1.00  0.00    +0.194 C 
ATOM     17  O   UNL     1       0.202   2.603   0.411  1.00  0.00    -0.289 OA
ENDROOT
TORSDOF 0
