MODEL 1
REMARK VINA RESULT:   -11.235      0.000      0.000
REMARK INTER + INTRA:         -16.447
REMARK INTER:                 -15.504
REMARK INTRA:                  -0.943
REMARK UNBOUND:                -0.943
REMARK SMILES O=C1C(O)=C(CCCc2ccc(Oc3ccccc3)cc2)C(=O)c2ccccc21
REMARK SMILES IDX 7 1 6 2 5 3 3 4 2 5 22 6 29 7 1 8 23 9 24 10 28 11 25 12
REMARK SMILES IDX 27 13 26 14 4 15 8 17 9 18 10 19 21 20 11 21 20 22 12 23
REMARK SMILES IDX 13 24 14 25 15 26 19 27 16 28 18 29 17 30
REMARK H PARENT 4 16
ROOT
ATOM      1  C   UNL     1     -32.499   8.463   6.557  1.00  0.00    +0.010 C 
ENDROOT
BRANCH   1   2
ATOM      2  C   UNL     1     -31.616   9.035   7.674  1.00  0.00    +0.044 C 
BRANCH   2   3
ATOM      3  C   UNL     1     -30.225   9.421   7.225  1.00  0.00    +0.046 C 
ATOM      4  C   UNL     1     -29.155   8.633   7.398  1.00  0.00    +0.171 C 
ATOM      5  C   UNL     1     -27.788   9.039   6.986  1.00  0.00    +0.228 C 
ATOM      6  C   UNL     1     -30.069  10.747   6.561  1.00  0.00    +0.193 C 
ATOM      7  C   UNL     1     -27.621  10.334   6.319  1.00  0.00    +0.037 A 
ATOM      8  O   UNL     1     -26.844   8.291   7.227  1.00  0.00    -0.285 OA
ATOM      9  O   UNL     1     -31.030  11.489   6.379  1.00  0.00    -0.289 OA
ATOM     10  C   UNL     1     -28.723  11.160   6.116  1.00  0.00    +0.034 A 
ATOM     11  C   UNL     1     -26.347  10.740   5.899  1.00  0.00    +0.013 A 
ATOM     12  C   UNL     1     -28.552  12.401   5.489  1.00  0.00    +0.013 A 
ATOM     13  C   UNL     1     -26.182  11.973   5.270  1.00  0.00    +0.001 A 
ATOM     14  C   UNL     1     -27.283  12.803   5.066  1.00  0.00    +0.001 A 
BRANCH   4  15
ATOM     15  O   UNL     1     -29.261   7.397   8.009  1.00  0.00    -0.504 OA
ATOM     16  H   UNL     1     -30.191   7.338   8.322  1.00  0.00    +0.293 HD
ENDBRANCH   4  15
ENDBRANCH   2   3
ENDBRANCH   1   2
BRANCH   1  17
ATOM     17  C   UNL     1     -32.185   7.004   6.202  1.00  0.00    +0.036 C 
BRANCH  17  18
ATOM     18  C   UNL     1     -32.817   6.054   7.191  1.00  0.00    -0.048 A 
ATOM     19  C   UNL     1     -32.191   5.767   8.409  1.00  0.00    +0.007 A 
ATOM     20  C   UNL     1     -34.064   5.475   6.911  1.00  0.00    +0.007 A 
ATOM     21  C   UNL     1     -32.795   4.907   9.329  1.00  0.00    +0.047 A 
ATOM     22  C   UNL     1     -34.670   4.618   7.831  1.00  0.00    +0.047 A 
ATOM     23  C   UNL     1     -34.030   4.322   9.035  1.00  0.00    +0.127 A 
BRANCH  23  24
ATOM     24  O   UNL     1     -34.717   3.495   9.897  1.00  0.00    -0.457 OA
BRANCH  24  25
ATOM     25  C   UNL     1     -35.940   3.938  10.344  1.00  0.00    +0.127 A 
ATOM     26  C   UNL     1     -37.021   3.058  10.283  1.00  0.00    +0.047 A 
ATOM     27  C   UNL     1     -36.087   5.212  10.899  1.00  0.00    +0.047 A 
ATOM     28  C   UNL     1     -38.274   3.478  10.728  1.00  0.00    +0.004 A 
ATOM     29  C   UNL     1     -37.341   5.625  11.352  1.00  0.00    +0.004 A 
ATOM     30  C   UNL     1     -38.432   4.764  11.255  1.00  0.00    +0.000 A 
ENDBRANCH  24  25
ENDBRANCH  23  24
ENDBRANCH  17  18
ENDBRANCH   1  17
TORSDOF 7
ENDMDL
MODEL 2
REMARK VINA RESULT:   -11.116      0.701      2.342
REMARK INTER + INTRA:         -16.283
REMARK INTER:                 -15.261
REMARK INTRA:                  -1.022
REMARK UNBOUND:                -0.943
REMARK SMILES O=C1C(O)=C(CCCc2ccc(Oc3ccccc3)cc2)C(=O)c2ccccc21
REMARK SMILES IDX 7 1 6 2 5 3 3 4 2 5 22 6 29 7 1 8 23 9 24 10 28 11 25 12
REMARK SMILES IDX 27 13 26 14 4 15 8 17 9 18 10 19 21 20 11 21 20 22 12 23
REMARK SMILES IDX 13 24 14 25 15 26 19 27 16 28 18 29 17 30
REMARK H PARENT 4 16
ROOT
ATOM      1  C   UNL     1     -32.509   8.437   6.611  1.00  0.00    +0.010 C 
ENDROOT
BRANCH   1   2
ATOM      2  C   UNL     1     -31.699   9.210   7.660  1.00  0.00    +0.044 C 
BRANCH   2   3
ATOM      3  C   UNL     1     -30.474   9.904   7.107  1.00  0.00    +0.046 C 
ATOM      4  C   UNL     1     -30.515  11.115   6.536  1.00  0.00    +0.171 C 
ATOM      5  C   UNL     1     -29.312  11.771   5.965  1.00  0.00    +0.228 C 
ATOM      6  C   UNL     1     -29.176   9.180   7.219  1.00  0.00    +0.193 C 
ATOM      7  C   UNL     1     -28.025  11.078   6.079  1.00  0.00    +0.037 A 
ATOM      8  O   UNL     1     -29.433  12.857   5.405  1.00  0.00    -0.285 OA
ATOM      9  O   UNL     1     -29.102   8.073   7.744  1.00  0.00    -0.289 OA
ATOM     10  C   UNL     1     -27.960   9.825   6.683  1.00  0.00    +0.034 A 
ATOM     11  C   UNL     1     -26.866  11.677   5.567  1.00  0.00    +0.013 A 
ATOM     12  C   UNL     1     -26.728   9.166   6.778  1.00  0.00    +0.013 A 
ATOM     13  C   UNL     1     -25.641  11.020   5.669  1.00  0.00    +0.001 A 
ATOM     14  C   UNL     1     -25.571   9.766   6.272  1.00  0.00    +0.001 A 
BRANCH   4  15
ATOM     15  O   UNL     1     -31.701  11.816   6.416  1.00  0.00    -0.504 OA
ATOM     16  H   UNL     1     -31.565  12.436   5.665  1.00  0.00    +0.293 HD
ENDBRANCH   4  15
ENDBRANCH   2   3
ENDBRANCH   1   2
BRANCH   1  17
ATOM     17  C   UNL     1     -32.048   6.986   6.416  1.00  0.00    +0.036 C 
BRANCH  17  18
ATOM     18  C   UNL     1     -32.738   6.061   7.390  1.00  0.00    -0.048 A 
ATOM     19  C   UNL     1     -32.133   5.719   8.605  1.00  0.00    +0.007 A 
ATOM     20  C   UNL     1     -34.016   5.560   7.099  1.00  0.00    +0.007 A 
ATOM     21  C   UNL     1     -32.789   4.883   9.511  1.00  0.00    +0.047 A 
ATOM     22  C   UNL     1     -34.674   4.726   8.005  1.00  0.00    +0.047 A 
ATOM     23  C   UNL     1     -34.056   4.375   9.205  1.00  0.00    +0.127 A 
BRANCH  23  24
ATOM     24  O   UNL     1     -34.792   3.577  10.054  1.00  0.00    -0.457 OA
BRANCH  24  25
ATOM     25  C   UNL     1     -36.029   4.043  10.431  1.00  0.00    +0.127 A 
ATOM     26  C   UNL     1     -36.103   5.297  11.038  1.00  0.00    +0.047 A 
ATOM     27  C   UNL     1     -37.189   3.311  10.163  1.00  0.00    +0.047 A 
ATOM     28  C   UNL     1     -37.343   5.798  11.431  1.00  0.00    +0.004 A 
ATOM     29  C   UNL     1     -38.429   3.819  10.551  1.00  0.00    +0.004 A 
ATOM     30  C   UNL     1     -38.504   5.054  11.194  1.00  0.00    +0.000 A 
ENDBRANCH  24  25
ENDBRANCH  23  24
ENDBRANCH  17  18
ENDBRANCH   1  17
TORSDOF 7
ENDMDL
MODEL 3
REMARK VINA RESULT:   -10.992      5.252      6.862
REMARK INTER + INTRA:         -16.111
REMARK INTER:                 -15.748
REMARK INTRA:                  -0.363
REMARK UNBOUND:                -0.943
REMARK SMILES O=C1C(O)=C(CCCc2ccc(Oc3ccccc3)cc2)C(=O)c2ccccc21
REMARK SMILES IDX 7 1 6 2 5 3 3 4 2 5 22 6 29 7 1 8 23 9 24 10 28 11 25 12
REMARK SMILES IDX 27 13 26 14 4 15 8 17 9 18 10 19 21 20 11 21 20 22 12 23
REMARK SMILES IDX 13 24 14 25 15 26 19 27 16 28 18 29 17 30
REMARK H PARENT 4 16
ROOT
ATOM      1  C   UNL     1     -25.777   5.488   8.972  1.00  0.00    +0.010 C 
ENDROOT
BRANCH   1   2
ATOM      2  C   UNL     1     -25.410   5.921   7.546  1.00  0.00    +0.044 C 
BRANCH   2   3
ATOM      3  C   UNL     1     -25.965   7.269   7.147  1.00  0.00    +0.046 C 
ATOM      4  C   UNL     1     -25.222   8.225   6.572  1.00  0.00    +0.171 C 
ATOM      5  C   UNL     1     -25.769   9.558   6.216  1.00  0.00    +0.228 C 
ATOM      6  C   UNL     1     -27.409   7.516   7.419  1.00  0.00    +0.193 C 
ATOM      7  C   UNL     1     -27.192   9.811   6.466  1.00  0.00    +0.037 A 
ATOM      8  O   UNL     1     -25.018  10.406   5.744  1.00  0.00    -0.285 OA
ATOM      9  O   UNL     1     -28.120   6.660   7.938  1.00  0.00    -0.289 OA
ATOM     10  C   UNL     1     -27.984   8.826   7.049  1.00  0.00    +0.034 A 
ATOM     11  C   UNL     1     -27.746  11.053   6.125  1.00  0.00    +0.013 A 
ATOM     12  C   UNL     1     -29.339   9.081   7.293  1.00  0.00    +0.013 A 
ATOM     13  C   UNL     1     -29.097  11.301   6.365  1.00  0.00    +0.001 A 
ATOM     14  C   UNL     1     -29.892  10.317   6.949  1.00  0.00    +0.001 A 
BRANCH   4  15
ATOM     15  O   UNL     1     -23.879   8.031   6.303  1.00  0.00    -0.504 OA
ATOM     16  H   UNL     1     -23.408   8.737   6.798  1.00  0.00    +0.293 HD
ENDBRANCH   4  15
ENDBRANCH   2   3
ENDBRANCH   1   2
BRANCH   1  17
ATOM     17  C   UNL     1     -24.683   4.673   9.674  1.00  0.00    +0.036 C 
BRANCH  17  18
ATOM     18  C   UNL     1     -25.283   3.644  10.603  1.00  0.00    -0.048 A 
ATOM     19  C   UNL     1     -26.016   4.036  11.730  1.00  0.00    +0.007 A 
ATOM     20  C   UNL     1     -25.140   2.276  10.324  1.00  0.00    +0.007 A 
ATOM     21  C   UNL     1     -26.588   3.078  12.569  1.00  0.00    +0.047 A 
ATOM     22  C   UNL     1     -25.715   1.318  11.161  1.00  0.00    +0.047 A 
ATOM     23  C   UNL     1     -26.427   1.717  12.292  1.00  0.00    +0.127 A 
BRANCH  23  24
ATOM     24  O   UNL     1     -26.989   0.706  13.041  1.00  0.00    -0.457 OA
BRANCH  24  25
ATOM     25  C   UNL     1     -28.348   0.760  13.242  1.00  0.00    +0.127 A 
ATOM     26  C   UNL     1     -29.181   0.707  12.125  1.00  0.00    +0.047 A 
ATOM     27  C   UNL     1     -28.885   0.808  14.532  1.00  0.00    +0.047 A 
ATOM     28  C   UNL     1     -30.564   0.760  12.296  1.00  0.00    +0.004 A 
ATOM     29  C   UNL     1     -30.270   0.853  14.699  1.00  0.00    +0.004 A 
ATOM     30  C   UNL     1     -31.105   0.840  13.583  1.00  0.00    +0.000 A 
ENDBRANCH  24  25
ENDBRANCH  23  24
ENDBRANCH  17  18
ENDBRANCH   1  17
TORSDOF 7
ENDMDL
MODEL 4
REMARK VINA RESULT:   -10.905      5.384      9.863
REMARK INTER + INTRA:         -15.992
REMARK INTER:                 -15.907
REMARK INTRA:                  -0.085
REMARK UNBOUND:                -0.943
REMARK SMILES O=C1C(O)=C(CCCc2ccc(Oc3ccccc3)cc2)C(=O)c2ccccc21
REMARK SMILES IDX 7 1 6 2 5 3 3 4 2 5 22 6 29 7 1 8 23 9 24 10 28 11 25 12
REMARK SMILES IDX 27 13 26 14 4 15 8 17 9 18 10 19 21 20 11 21 20 22 12 23
REMARK SMILES IDX 13 24 14 25 15 26 19 27 16 28 18 29 17 30
REMARK H PARENT 4 16
ROOT
ATOM      1  C   UNL     1     -25.783   4.819   9.411  1.00  0.00    +0.010 C 
ENDROOT
BRANCH   1   2
ATOM      2  C   UNL     1     -25.009   3.599   9.928  1.00  0.00    +0.044 C 
BRANCH   2   3
ATOM      3  C   UNL     1     -25.883   2.515  10.516  1.00  0.00    +0.046 C 
ATOM      4  C   UNL     1     -26.030   1.308   9.952  1.00  0.00    +0.171 C 
ATOM      5  C   UNL     1     -26.920   0.263  10.519  1.00  0.00    +0.228 C 
ATOM      6  C   UNL     1     -26.602   2.834  11.782  1.00  0.00    +0.193 C 
ATOM      7  C   UNL     1     -27.623   0.558  11.772  1.00  0.00    +0.037 A 
ATOM      8  O   UNL     1     -27.051  -0.799   9.919  1.00  0.00    -0.285 OA
ATOM      9  O   UNL     1     -26.484   3.927  12.329  1.00  0.00    -0.289 OA
ATOM     10  C   UNL     1     -27.471   1.801  12.380  1.00  0.00    +0.034 A 
ATOM     11  C   UNL     1     -28.456  -0.413  12.345  1.00  0.00    +0.013 A 
ATOM     12  C   UNL     1     -28.156   2.077  13.571  1.00  0.00    +0.013 A 
ATOM     13  C   UNL     1     -29.132  -0.136  13.533  1.00  0.00    +0.001 A 
ATOM     14  C   UNL     1     -28.983   1.108  14.145  1.00  0.00    +0.001 A 
BRANCH   4  15
ATOM     15  O   UNL     1     -25.378   0.976   8.779  1.00  0.00    -0.504 OA
ATOM     16  H   UNL     1     -25.868   0.204   8.416  1.00  0.00    +0.293 HD
ENDBRANCH   4  15
ENDBRANCH   2   3
ENDBRANCH   1   2
BRANCH   1  17
ATOM     17  C   UNL     1     -25.282   5.345   8.060  1.00  0.00    +0.036 C 
BRANCH  17  18
ATOM     18  C   UNL     1     -26.133   6.495   7.574  1.00  0.00    -0.048 A 
ATOM     19  C   UNL     1     -27.396   6.735   8.127  1.00  0.00    +0.007 A 
ATOM     20  C   UNL     1     -25.645   7.360   6.582  1.00  0.00    +0.007 A 
ATOM     21  C   UNL     1     -28.165   7.816   7.689  1.00  0.00    +0.047 A 
ATOM     22  C   UNL     1     -26.412   8.442   6.147  1.00  0.00    +0.047 A 
ATOM     23  C   UNL     1     -27.678   8.663   6.689  1.00  0.00    +0.127 A 
BRANCH  23  24
ATOM     24  O   UNL     1     -28.349   9.774   6.225  1.00  0.00    -0.457 OA
BRANCH  24  25
ATOM     25  C   UNL     1     -29.549  10.073   6.826  1.00  0.00    +0.127 A 
ATOM     26  C   UNL     1     -29.731  11.363   7.326  1.00  0.00    +0.047 A 
ATOM     27  C   UNL     1     -30.581   9.133   6.885  1.00  0.00    +0.047 A 
ATOM     28  C   UNL     1     -30.936  11.697   7.942  1.00  0.00    +0.004 A 
ATOM     29  C   UNL     1     -31.789   9.474   7.495  1.00  0.00    +0.004 A 
ATOM     30  C   UNL     1     -31.961  10.750   8.031  1.00  0.00    +0.000 A 
ENDBRANCH  24  25
ENDBRANCH  23  24
ENDBRANCH  17  18
ENDBRANCH   1  17
TORSDOF 7
ENDMDL
MODEL 5
REMARK VINA RESULT:   -10.496      4.952      6.330
REMARK INTER + INTRA:         -15.427
REMARK INTER:                 -15.608
REMARK INTRA:                   0.181
REMARK UNBOUND:                -0.943
REMARK SMILES O=C1C(O)=C(CCCc2ccc(Oc3ccccc3)cc2)C(=O)c2ccccc21
REMARK SMILES IDX 7 1 6 2 5 3 3 4 2 5 22 6 29 7 1 8 23 9 24 10 28 11 25 12
REMARK SMILES IDX 27 13 26 14 4 15 8 17 9 18 10 19 21 20 11 21 20 22 12 23
REMARK SMILES IDX 13 24 14 25 15 26 19 27 16 28 18 29 17 30
REMARK H PARENT 4 16
ROOT
ATOM      1  C   UNL     1     -26.215   5.723   7.908  1.00  0.00    +0.010 C 
ENDROOT
BRANCH   1   2
ATOM      2  C   UNL     1     -25.603   6.972   7.261  1.00  0.00    +0.044 C 
BRANCH   2   3
ATOM      3  C   UNL     1     -26.589   8.094   7.027  1.00  0.00    +0.046 C 
ATOM      4  C   UNL     1     -27.863   8.046   7.439  1.00  0.00    +0.171 C 
ATOM      5  C   UNL     1     -28.832   9.138   7.173  1.00  0.00    +0.228 C 
ATOM      6  C   UNL     1     -26.089   9.297   6.302  1.00  0.00    +0.193 C 
ATOM      7  C   UNL     1     -28.352  10.334   6.472  1.00  0.00    +0.037 A 
ATOM      8  O   UNL     1     -29.999   9.003   7.529  1.00  0.00    -0.285 OA
ATOM      9  O   UNL     1     -24.926   9.377   5.918  1.00  0.00    -0.289 OA
ATOM     10  C   UNL     1     -27.027  10.409   6.049  1.00  0.00    +0.034 A 
ATOM     11  C   UNL     1     -29.235  11.392   6.221  1.00  0.00    +0.013 A 
ATOM     12  C   UNL     1     -26.581  11.551   5.371  1.00  0.00    +0.013 A 
ATOM     13  C   UNL     1     -28.786  12.529   5.550  1.00  0.00    +0.001 A 
ATOM     14  C   UNL     1     -27.460  12.608   5.125  1.00  0.00    +0.001 A 
BRANCH   4  15
ATOM     15  O   UNL     1     -28.361   6.947   8.116  1.00  0.00    -0.504 OA
ATOM     16  H   UNL     1     -27.641   6.278   8.096  1.00  0.00    +0.293 HD
ENDBRANCH   4  15
ENDBRANCH   2   3
ENDBRANCH   1   2
BRANCH   1  17
ATOM     17  C   UNL     1     -25.399   5.170   9.084  1.00  0.00    +0.036 C 
BRANCH  17  18
ATOM     18  C   UNL     1     -25.986   3.874   9.592  1.00  0.00    -0.048 A 
ATOM     19  C   UNL     1     -25.156   2.840  10.042  1.00  0.00    +0.007 A 
ATOM     20  C   UNL     1     -27.378   3.707   9.650  1.00  0.00    +0.007 A 
ATOM     21  C   UNL     1     -25.707   1.655  10.533  1.00  0.00    +0.047 A 
ATOM     22  C   UNL     1     -27.929   2.524  10.143  1.00  0.00    +0.047 A 
ATOM     23  C   UNL     1     -27.096   1.491  10.572  1.00  0.00    +0.127 A 
BRANCH  23  24
ATOM     24  O   UNL     1     -27.726   0.374  11.076  1.00  0.00    -0.457 OA
BRANCH  24  25
ATOM     25  C   UNL     1     -28.592   0.568  12.127  1.00  0.00    +0.127 A 
ATOM     26  C   UNL     1     -28.095   1.156  13.289  1.00  0.00    +0.047 A 
ATOM     27  C   UNL     1     -29.946   0.240  12.016  1.00  0.00    +0.047 A 
ATOM     28  C   UNL     1     -28.948   1.366  14.372  1.00  0.00    +0.004 A 
ATOM     29  C   UNL     1     -30.799   0.459  13.099  1.00  0.00    +0.004 A 
ATOM     30  C   UNL     1     -30.297   1.010  14.277  1.00  0.00    +0.000 A 
ENDBRANCH  24  25
ENDBRANCH  23  24
ENDBRANCH  17  18
ENDBRANCH   1  17
TORSDOF 7
ENDMDL
MODEL 6
REMARK VINA RESULT:   -10.447      1.383      9.806
REMARK INTER + INTRA:         -15.360
REMARK INTER:                 -14.518
REMARK INTRA:                  -0.842
REMARK UNBOUND:                -0.943
REMARK SMILES O=C1C(O)=C(CCCc2ccc(Oc3ccccc3)cc2)C(=O)c2ccccc21
REMARK SMILES IDX 7 1 6 2 5 3 3 4 2 5 22 6 29 7 1 8 23 9 24 10 28 11 25 12
REMARK SMILES IDX 27 13 26 14 4 15 8 17 9 18 10 19 21 20 11 21 20 22 12 23
REMARK SMILES IDX 13 24 14 25 15 26 19 27 16 28 18 29 17 30
REMARK H PARENT 4 16
ROOT
ATOM      1  C   UNL     1     -33.569   5.410   6.114  1.00  0.00    +0.010 C 
ENDROOT
BRANCH   1   2
ATOM      2  C   UNL     1     -33.273   5.282   7.615  1.00  0.00    +0.044 C 
BRANCH   2   3
ATOM      3  C   UNL     1     -34.403   4.681   8.419  1.00  0.00    +0.046 C 
ATOM      4  C   UNL     1     -34.348   3.454   8.954  1.00  0.00    +0.171 C 
ATOM      5  C   UNL     1     -35.479   2.861   9.712  1.00  0.00    +0.228 C 
ATOM      6  C   UNL     1     -35.622   5.519   8.607  1.00  0.00    +0.193 C 
ATOM      7  C   UNL     1     -36.679   3.677   9.917  1.00  0.00    +0.037 A 
ATOM      8  O   UNL     1     -35.381   1.709  10.126  1.00  0.00    -0.285 OA
ATOM      9  O   UNL     1     -35.702   6.650   8.137  1.00  0.00    -0.289 OA
ATOM     10  C   UNL     1     -36.749   4.961   9.382  1.00  0.00    +0.034 A 
ATOM     11  C   UNL     1     -37.758   3.155  10.644  1.00  0.00    +0.013 A 
ATOM     12  C   UNL     1     -37.905   5.729   9.574  1.00  0.00    +0.013 A 
ATOM     13  C   UNL     1     -38.904   3.925  10.838  1.00  0.00    +0.001 A 
ATOM     14  C   UNL     1     -38.978   5.210  10.303  1.00  0.00    +0.001 A 
BRANCH   4  15
ATOM     15  O   UNL     1     -33.234   2.650   8.801  1.00  0.00    -0.504 OA
ATOM     16  H   UNL     1     -32.495   3.263   8.590  1.00  0.00    +0.293 HD
ENDBRANCH   4  15
ENDBRANCH   2   3
ENDBRANCH   1   2
BRANCH   1  17
ATOM     17  C   UNL     1     -33.702   6.859   5.629  1.00  0.00    +0.036 C 
BRANCH  17  18
ATOM     18  C   UNL     1     -32.581   7.718   6.166  1.00  0.00    -0.048 A 
ATOM     19  C   UNL     1     -32.813   8.634   7.199  1.00  0.00    +0.007 A 
ATOM     20  C   UNL     1     -31.282   7.579   5.655  1.00  0.00    +0.007 A 
ATOM     21  C   UNL     1     -31.765   9.406   7.707  1.00  0.00    +0.047 A 
ATOM     22  C   UNL     1     -30.234   8.348   6.164  1.00  0.00    +0.047 A 
ATOM     23  C   UNL     1     -30.477   9.272   7.180  1.00  0.00    +0.127 A 
BRANCH  23  24
ATOM     24  O   UNL     1     -29.378   9.962   7.645  1.00  0.00    -0.457 OA
BRANCH  24  25
ATOM     25  C   UNL     1     -28.748  10.802   6.758  1.00  0.00    +0.127 A 
ATOM     26  C   UNL     1     -27.480  10.444   6.300  1.00  0.00    +0.047 A 
ATOM     27  C   UNL     1     -29.381  11.953   6.280  1.00  0.00    +0.047 A 
ATOM     28  C   UNL     1     -26.815  11.275   5.398  1.00  0.00    +0.004 A 
ATOM     29  C   UNL     1     -28.715  12.778   5.372  1.00  0.00    +0.004 A 
ATOM     30  C   UNL     1     -27.431  12.444   4.942  1.00  0.00    +0.000 A 
ENDBRANCH  24  25
ENDBRANCH  23  24
ENDBRANCH  17  18
ENDBRANCH   1  17
TORSDOF 7
ENDMDL
MODEL 7
REMARK VINA RESULT:   -10.371      1.366      2.095
REMARK INTER + INTRA:         -15.254
REMARK INTER:                 -15.345
REMARK INTRA:                   0.091
REMARK UNBOUND:                -0.943
REMARK SMILES O=C1C(O)=C(CCCc2ccc(Oc3ccccc3)cc2)C(=O)c2ccccc21
REMARK SMILES IDX 7 1 6 2 5 3 3 4 2 5 22 6 29 7 1 8 23 9 24 10 28 11 25 12
REMARK SMILES IDX 27 13 26 14 4 15 8 17 9 18 10 19 21 20 11 21 20 22 12 23
REMARK SMILES IDX 13 24 14 25 15 26 19 27 16 28 18 29 17 30
REMARK H PARENT 4 16
ROOT
ATOM      1  C   UNL     1     -29.865   6.982   8.033  1.00  0.00    +0.010 C 
ENDROOT
BRANCH   1   2
ATOM      2  C   UNL     1     -28.352   7.224   8.121  1.00  0.00    +0.044 C 
BRANCH   2   3
ATOM      3  C   UNL     1     -27.878   8.451   7.377  1.00  0.00    +0.046 C 
ATOM      4  C   UNL     1     -26.613   8.614   6.966  1.00  0.00    +0.171 C 
ATOM      5  C   UNL     1     -26.150   9.839   6.267  1.00  0.00    +0.228 C 
ATOM      6  C   UNL     1     -28.889   9.511   7.101  1.00  0.00    +0.193 C 
ATOM      7  C   UNL     1     -27.136  10.885   5.977  1.00  0.00    +0.037 A 
ATOM      8  O   UNL     1     -24.964   9.945   5.970  1.00  0.00    -0.285 OA
ATOM      9  O   UNL     1     -30.058   9.390   7.456  1.00  0.00    -0.289 OA
ATOM     10  C   UNL     1     -28.459  10.727   6.382  1.00  0.00    +0.034 A 
ATOM     11  C   UNL     1     -26.737  12.046   5.301  1.00  0.00    +0.013 A 
ATOM     12  C   UNL     1     -29.391  11.737   6.110  1.00  0.00    +0.013 A 
ATOM     13  C   UNL     1     -27.670  13.046   5.028  1.00  0.00    +0.001 A 
ATOM     14  C   UNL     1     -28.995  12.892   5.433  1.00  0.00    +0.001 A 
BRANCH   4  15
ATOM     15  O   UNL     1     -25.648   7.651   7.202  1.00  0.00    -0.504 OA
ATOM     16  H   UNL     1     -24.812   8.148   7.347  1.00  0.00    +0.293 HD
ENDBRANCH   4  15
ENDBRANCH   2   3
ENDBRANCH   1   2
BRANCH   1  17
ATOM     17  C   UNL     1     -30.350   5.778   8.852  1.00  0.00    +0.036 C 
BRANCH  17  18
ATOM     18  C   UNL     1     -31.816   5.508   8.607  1.00  0.00    -0.048 A 
ATOM     19  C   UNL     1     -32.453   4.415   9.206  1.00  0.00    +0.007 A 
ATOM     20  C   UNL     1     -32.566   6.378   7.800  1.00  0.00    +0.007 A 
ATOM     21  C   UNL     1     -33.814   4.187   8.995  1.00  0.00    +0.047 A 
ATOM     22  C   UNL     1     -33.927   6.153   7.591  1.00  0.00    +0.047 A 
ATOM     23  C   UNL     1     -34.550   5.050   8.176  1.00  0.00    +0.127 A 
BRANCH  23  24
ATOM     24  O   UNL     1     -35.903   4.925   7.943  1.00  0.00    -0.457 OA
BRANCH  24  25
ATOM     25  C   UNL     1     -36.723   4.882   9.046  1.00  0.00    +0.127 A 
ATOM     26  C   UNL     1     -37.363   3.679   9.344  1.00  0.00    +0.047 A 
ATOM     27  C   UNL     1     -36.868   5.993   9.882  1.00  0.00    +0.047 A 
ATOM     28  C   UNL     1     -38.201   3.603  10.456  1.00  0.00    +0.004 A 
ATOM     29  C   UNL     1     -37.702   5.911  10.998  1.00  0.00    +0.004 A 
ATOM     30  C   UNL     1     -38.374   4.722  11.277  1.00  0.00    +0.000 A 
ENDBRANCH  24  25
ENDBRANCH  23  24
ENDBRANCH  17  18
ENDBRANCH   1  17
TORSDOF 7
ENDMDL
MODEL 8
REMARK VINA RESULT:   -10.339      1.617     10.174
REMARK INTER + INTRA:         -15.211
REMARK INTER:                 -15.078
REMARK INTRA:                  -0.133
REMARK UNBOUND:                -0.943
REMARK SMILES O=C1C(O)=C(CCCc2ccc(Oc3ccccc3)cc2)C(=O)c2ccccc21
REMARK SMILES IDX 7 1 6 2 5 3 3 4 2 5 22 6 29 7 1 8 23 9 24 10 28 11 25 12
REMARK SMILES IDX 27 13 26 14 4 15 8 17 9 18 10 19 21 20 11 21 20 22 12 23
REMARK SMILES IDX 13 24 14 25 15 26 19 27 16 28 18 29 17 30
REMARK H PARENT 4 16
ROOT
ATOM      1  C   UNL     1     -34.253   4.840   6.327  1.00  0.00    +0.010 C 
ENDROOT
BRANCH   1   2
ATOM      2  C   UNL     1     -33.959   4.771   7.832  1.00  0.00    +0.044 C 
BRANCH   2   3
ATOM      3  C   UNL     1     -35.166   4.451   8.683  1.00  0.00    +0.046 C 
ATOM      4  C   UNL     1     -36.041   5.381   9.091  1.00  0.00    +0.171 C 
ATOM      5  C   UNL     1     -37.204   5.060   9.957  1.00  0.00    +0.228 C 
ATOM      6  C   UNL     1     -35.365   3.026   9.072  1.00  0.00    +0.193 C 
ATOM      7  C   UNL     1     -37.420   3.660  10.336  1.00  0.00    +0.037 A 
ATOM      8  O   UNL     1     -37.933   5.971  10.339  1.00  0.00    -0.285 OA
ATOM      9  O   UNL     1     -34.587   2.148   8.709  1.00  0.00    -0.289 OA
ATOM     10  C   UNL     1     -36.530   2.678   9.910  1.00  0.00    +0.034 A 
ATOM     11  C   UNL     1     -38.518   3.320  11.137  1.00  0.00    +0.013 A 
ATOM     12  C   UNL     1     -36.739   1.344  10.287  1.00  0.00    +0.013 A 
ATOM     13  C   UNL     1     -38.725   1.991  11.505  1.00  0.00    +0.001 A 
ATOM     14  C   UNL     1     -37.837   1.005  11.081  1.00  0.00    +0.001 A 
BRANCH   4  15
ATOM     15  O   UNL     1     -35.890   6.712   8.749  1.00  0.00    -0.504 OA
ATOM     16  H   UNL     1     -36.050   6.754   7.780  1.00  0.00    +0.293 HD
ENDBRANCH   4  15
ENDBRANCH   2   3
ENDBRANCH   1   2
BRANCH   1  17
ATOM     17  C   UNL     1     -34.153   6.254   5.740  1.00  0.00    +0.036 C 
BRANCH  17  18
ATOM     18  C   UNL     1     -32.898   6.951   6.209  1.00  0.00    -0.048 A 
ATOM     19  C   UNL     1     -32.625   7.092   7.574  1.00  0.00    +0.007 A 
ATOM     20  C   UNL     1     -31.970   7.434   5.273  1.00  0.00    +0.007 A 
ATOM     21  C   UNL     1     -31.449   7.716   7.999  1.00  0.00    +0.047 A 
ATOM     22  C   UNL     1     -30.794   8.055   5.697  1.00  0.00    +0.047 A 
ATOM     23  C   UNL     1     -30.539   8.210   7.060  1.00  0.00    +0.127 A 
BRANCH  23  24
ATOM     24  O   UNL     1     -29.338   8.802   7.387  1.00  0.00    -0.457 OA
BRANCH  24  25
ATOM     25  C   UNL     1     -29.021   9.969   6.733  1.00  0.00    +0.127 A 
ATOM     26  C   UNL     1     -29.923  11.030   6.805  1.00  0.00    +0.047 A 
ATOM     27  C   UNL     1     -27.802  10.113   6.064  1.00  0.00    +0.047 A 
ATOM     28  C   UNL     1     -29.629  12.227   6.153  1.00  0.00    +0.004 A 
ATOM     29  C   UNL     1     -27.509  11.315   5.419  1.00  0.00    +0.004 A 
ATOM     30  C   UNL     1     -28.426  12.365   5.455  1.00  0.00    +0.000 A 
ENDBRANCH  24  25
ENDBRANCH  23  24
ENDBRANCH  17  18
ENDBRANCH   1  17
TORSDOF 7
ENDMDL
MODEL 9
REMARK VINA RESULT:   -10.128      5.237      8.179
REMARK INTER + INTRA:         -14.919
REMARK INTER:                 -13.625
REMARK INTRA:                  -1.294
REMARK UNBOUND:                -0.943
REMARK SMILES O=C1C(O)=C(CCCc2ccc(Oc3ccccc3)cc2)C(=O)c2ccccc21
REMARK SMILES IDX 7 1 6 2 5 3 3 4 2 5 22 6 29 7 1 8 23 9 24 10 28 11 25 12
REMARK SMILES IDX 27 13 26 14 4 15 8 17 9 18 10 19 21 20 11 21 20 22 12 23
REMARK SMILES IDX 13 24 14 25 15 26 19 27 16 28 18 29 17 30
REMARK H PARENT 4 16
ROOT
ATOM      1  C   UNL     1     -30.621  -0.531   9.635  1.00  0.00    +0.010 C 
ENDROOT
BRANCH   1   2
ATOM      2  C   UNL     1     -29.497  -0.939  10.597  1.00  0.00    +0.044 C 
BRANCH   2   3
ATOM      3  C   UNL     1     -28.654   0.215  11.088  1.00  0.00    +0.046 C 
ATOM      4  C   UNL     1     -28.843   0.806  12.276  1.00  0.00    +0.171 C 
ATOM      5  C   UNL     1     -28.031   1.962  12.733  1.00  0.00    +0.228 C 
ATOM      6  C   UNL     1     -27.569   0.695  10.186  1.00  0.00    +0.193 C 
ATOM      7  C   UNL     1     -26.951   2.437  11.862  1.00  0.00    +0.037 A 
ATOM      8  O   UNL     1     -28.297   2.490  13.809  1.00  0.00    -0.285 OA
ATOM      9  O   UNL     1     -27.363   0.171   9.095  1.00  0.00    -0.289 OA
ATOM     10  C   UNL     1     -26.729   1.826  10.631  1.00  0.00    +0.034 A 
ATOM     11  C   UNL     1     -26.153   3.514  12.272  1.00  0.00    +0.013 A 
ATOM     12  C   UNL     1     -25.702   2.294   9.801  1.00  0.00    +0.013 A 
ATOM     13  C   UNL     1     -25.129   3.973  11.445  1.00  0.00    +0.001 A 
ATOM     14  C   UNL     1     -24.904   3.365  10.211  1.00  0.00    +0.001 A 
BRANCH   4  15
ATOM     15  O   UNL     1     -29.839   0.386  13.140  1.00  0.00    -0.504 OA
ATOM     16  H   UNL     1     -30.406  -0.218  12.611  1.00  0.00    +0.293 HD
ENDBRANCH   4  15
ENDBRANCH   2   3
ENDBRANCH   1   2
BRANCH   1  17
ATOM     17  C   UNL     1     -31.963  -0.259  10.328  1.00  0.00    +0.036 C 
BRANCH  17  18
ATOM     18  C   UNL     1     -32.461   1.133  10.022  1.00  0.00    -0.048 A 
ATOM     19  C   UNL     1     -31.563   2.185   9.809  1.00  0.00    +0.007 A 
ATOM     20  C   UNL     1     -33.839   1.378   9.913  1.00  0.00    +0.007 A 
ATOM     21  C   UNL     1     -32.033   3.464   9.502  1.00  0.00    +0.047 A 
ATOM     22  C   UNL     1     -34.309   2.656   9.603  1.00  0.00    +0.047 A 
ATOM     23  C   UNL     1     -33.408   3.703   9.411  1.00  0.00    +0.127 A 
BRANCH  23  24
ATOM     24  O   UNL     1     -33.958   4.921   9.075  1.00  0.00    -0.457 OA
BRANCH  24  25
ATOM     25  C   UNL     1     -33.603   5.450   7.856  1.00  0.00    +0.127 A 
ATOM     26  C   UNL     1     -34.336   5.066   6.733  1.00  0.00    +0.047 A 
ATOM     27  C   UNL     1     -32.575   6.391   7.751  1.00  0.00    +0.047 A 
ATOM     28  C   UNL     1     -34.000   5.586   5.484  1.00  0.00    +0.004 A 
ATOM     29  C   UNL     1     -32.248   6.915   6.499  1.00  0.00    +0.004 A 
ATOM     30  C   UNL     1     -32.951   6.504   5.368  1.00  0.00    +0.000 A 
ENDBRANCH  24  25
ENDBRANCH  23  24
ENDBRANCH  17  18
ENDBRANCH   1  17
TORSDOF 7
ENDMDL
