REMARK SMILES OCc1cc2ccccc2c2ccccc12
REMARK SMILES IDX 1 1 2 3 3 4 16 5 4 6 15 7 11 8 5 9 14 10 12 11 10 12 6 13
REMARK SMILES IDX 13 14 9 15 7 16 8 17
REMARK H PARENT 1 2
ROOT
ATOM      1  O   UNL     1      -3.014  -2.571   0.198  1.00  0.00    -0.392 OA
ATOM      2  H   UNL     1      -2.642  -2.582  -0.702  1.00  0.00    +0.211 HD
ENDROOT
BRANCH   1   3
ATOM      3  C   UNL     1      -2.836  -1.244   0.692  1.00  0.00    +0.192 C 
BRANCH   3   4
ATOM      4  C   UNL     1      -1.428  -0.736   0.453  1.00  0.00    -0.014 A 
ATOM      5  C   UNL     1      -1.134   0.631   0.211  1.00  0.00    -0.012 A 
ATOM      6  C   UNL     1      -0.375  -1.663   0.540  1.00  0.00    +0.015 A 
ATOM      7  C   UNL     1      -2.140   1.629   0.188  1.00  0.00    +0.009 A 
ATOM      8  C   UNL     1       0.220   1.027  -0.010  1.00  0.00    -0.010 A 
ATOM      9  C   UNL     1       0.955  -1.297   0.331  1.00  0.00    -0.017 A 
ATOM     10  C   UNL     1      -1.856   2.970  -0.066  1.00  0.00    +0.001 A 
ATOM     11  C   UNL     1       0.465   2.401  -0.269  1.00  0.00    +0.009 A 
ATOM     12  C   UNL     1       1.277   0.048   0.042  1.00  0.00    -0.011 A 
ATOM     13  C   UNL     1       1.959  -2.279   0.409  1.00  0.00    +0.009 A 
ATOM     14  C   UNL     1      -0.551   3.357  -0.299  1.00  0.00    +0.001 A 
ATOM     15  C   UNL     1       2.653   0.333  -0.167  1.00  0.00    +0.009 A 
ATOM     16  C   UNL     1       3.297  -1.959   0.200  1.00  0.00    +0.001 A 
ATOM     17  C   UNL     1       3.645  -0.650  -0.091  1.00  0.00    +0.001 A 
ENDBRANCH   3   4
ENDBRANCH   1   3
TORSDOF 2
