REMARK SMILES Cc1nc(N)c2cnn(-c3ccc([N+](=O)[O-])cc3)c2n1
REMARK SMILES IDX 1 1 2 2 3 3 4 4 6 5 7 6 8 7 9 8 19 9 20 10 5 11 10 14 11 15
REMARK SMILES IDX 18 16 12 17 17 18 13 19 14 20 15 21 16 22
REMARK H PARENT 5 12 5 13
ROOT
ATOM      1  C   UNL     1      -3.294   2.101  -1.307  1.00  0.00    +0.090 C 
ATOM      2  C   UNL     1      -2.765   0.759  -0.897  1.00  0.00    +0.130 A 
ATOM      3  N   UNL     1      -3.639  -0.269  -0.919  1.00  0.00    -0.216 NA
ATOM      4  C   UNL     1      -3.212  -1.502  -0.592  1.00  0.00    +0.138 A 
ATOM      5  C   UNL     1      -1.873  -1.674  -0.242  1.00  0.00    +0.082 A 
ATOM      6  C   UNL     1      -1.032  -2.727   0.140  1.00  0.00    +0.150 A 
ATOM      7  N   UNL     1       0.220  -2.335   0.375  1.00  0.00    -0.174 NA
ATOM      8  N   UNL     1       0.212  -0.988   0.123  1.00  0.00    -0.215 N 
ATOM      9  C   UNL     1      -1.058  -0.554  -0.255  1.00  0.00    +0.168 A 
ATOM     10  N   UNL     1      -1.459   0.692  -0.579  1.00  0.00    -0.213 NA
ENDROOT
BRANCH   4  11
ATOM     11  N   UNL     1      -4.147  -2.525  -0.618  1.00  0.00    -0.383 N 
ATOM     12  H   UNL     1      -4.000  -3.278   0.039  1.00  0.00    +0.158 HD
ATOM     13  H   UNL     1      -5.088  -2.148  -0.659  1.00  0.00    +0.158 HD
ENDBRANCH   4  11
BRANCH   8  14
ATOM     14  C   UNL     1       1.424  -0.240   0.272  1.00  0.00    +0.068 A 
ATOM     15  C   UNL     1       1.480   1.139   0.029  1.00  0.00    +0.035 A 
ATOM     16  C   UNL     1       2.596  -0.911   0.672  1.00  0.00    +0.035 A 
ATOM     17  C   UNL     1       2.683   1.840   0.185  1.00  0.00    +0.088 A 
ATOM     18  C   UNL     1       3.800  -0.217   0.829  1.00  0.00    +0.088 A 
ATOM     19  C   UNL     1       3.840   1.159   0.584  1.00  0.00    +0.269 A 
BRANCH  19  20
ATOM     20  N   UNL     1       5.100   1.894   0.747  1.00  0.00    +0.062 N 
ATOM     21  O   UNL     1       6.100   1.254   1.102  1.00  0.00    -0.258 OA
ATOM     22  O   UNL     1       5.090   3.112   0.520  1.00  0.00    -0.258 OA
ENDBRANCH  19  20
ENDBRANCH   8  14
TORSDOF 3
