REMARK SMILES C[C@@H]1CC[C@]2(OC1)O[C@@H]1C[C@H]3[C@H]4CC[C@@H]5C[C@@H](O)CC[C@]5(C)[C@H]4CC[C@@]3(C)[C@@H]1[C@H]2C
REMARK SMILES IDX 1 1 2 2 3 3 4 4 5 5 6 6 7 7 8 8 9 9 10 10 11 11 12 12 13 13
REMARK SMILES IDX 14 14 15 15 16 16 17 17 19 18 20 19 21 20 22 21 23 22 24 23
REMARK SMILES IDX 25 24 26 25 27 26 28 27 29 28 30 29 18 30
REMARK H PARENT 18 31
ROOT
ATOM      1  C   UNL     1       7.299  -1.405  -1.570  1.00  0.00    +0.010 C 
ATOM      2  C   UNL     1       5.952  -0.898  -1.068  1.00  0.00    +0.012 C 
ATOM      3  C   UNL     1       5.650   0.506  -1.611  1.00  0.00    +0.011 C 
ATOM      4  C   UNL     1       4.788   1.323  -0.645  1.00  0.00    +0.066 C 
ATOM      5  C   UNL     1       3.864   0.419   0.173  1.00  0.00    +0.171 C 
ATOM      6  O   UNL     1       4.585  -0.542   0.951  1.00  0.00    -0.349 OA
ATOM      7  C   UNL     1       5.878  -0.894   0.457  1.00  0.00    +0.167 C 
ATOM      8  O   UNL     1       2.973  -0.263  -0.720  1.00  0.00    -0.346 OA
ATOM      9  C   UNL     1       1.829  -0.660   0.041  1.00  0.00    +0.126 C 
ATOM     10  C   UNL     1       0.552  -0.391  -0.752  1.00  0.00    +0.037 C 
ATOM     11  C   UNL     1      -0.077   0.852  -0.104  1.00  0.00    +0.001 C 
ATOM     12  C   UNL     1      -1.584   1.084  -0.358  1.00  0.00    -0.004 C 
ATOM     13  C   UNL     1      -1.932   1.003  -1.851  1.00  0.00    +0.004 C 
ATOM     14  C   UNL     1      -3.432   1.083  -2.058  1.00  0.00    +0.004 C 
ATOM     15  C   UNL     1      -4.188  -0.116  -1.454  1.00  0.00    -0.002 C 
ATOM     16  C   UNL     1      -5.653   0.314  -1.236  1.00  0.00    +0.036 C 
ATOM     17  C   UNL     1      -6.548  -0.842  -0.799  1.00  0.00    +0.114 C 
ATOM     18  C   UNL     1      -5.843  -1.836   0.117  1.00  0.00    +0.032 C 
ATOM     19  C   UNL     1      -4.648  -1.208   0.830  1.00  0.00    +0.010 C 
ATOM     20  C   UNL     1      -3.529  -0.721  -0.153  1.00  0.00    -0.026 C 
ATOM     21  C   UNL     1      -2.707  -1.971  -0.545  1.00  0.00    +0.012 C 
ATOM     22  C   UNL     1      -2.618   0.357   0.558  1.00  0.00    -0.001 C 
ATOM     23  C   UNL     1      -2.075  -0.026   1.956  1.00  0.00    +0.005 C 
ATOM     24  C   UNL     1      -0.587  -0.337   2.049  1.00  0.00    +0.008 C 
ATOM     25  C   UNL     1       0.312   0.727   1.381  1.00  0.00    -0.024 C 
ATOM     26  C   UNL     1       0.182   2.063   2.126  1.00  0.00    +0.012 C 
ATOM     27  C   UNL     1       1.775   0.199   1.315  1.00  0.00    +0.033 C 
ATOM     28  C   UNL     1       2.909   1.208   1.080  1.00  0.00    +0.052 C 
ATOM     29  C   UNL     1       3.552   1.709   2.370  1.00  0.00    +0.014 C 
ENDROOT
BRANCH  17  30
ATOM     30  O   UNL     1      -7.018  -1.530  -1.956  1.00  0.00    -0.393 OA
ATOM     31  H   UNL     1      -7.652  -2.203  -1.653  1.00  0.00    +0.210 HD
ENDBRANCH  17  30
TORSDOF 1
