MODEL 1
REMARK VINA RESULT:   -10.404      0.000      0.000
REMARK INTER + INTRA:         -18.876
REMARK INTER:                 -16.486
REMARK INTRA:                  -2.390
REMARK UNBOUND:                -2.390
REMARK SMILES CC1(C)O[C@H]2O[C@H](COC(=O)c3ccccc3)[C@H](OC(=O)c3ccccc3)[C@@H](OC(=O)c3ccccc3)[C@H]2O1
REMARK SMILES IDX 1 1 2 2 3 3 4 4 5 5 6 6 7 7 18 8 28 9 38 10 39 11 29 12
REMARK SMILES IDX 30 13 31 14 32 15 33 16 37 17 34 18 36 19 35 20 8 21 9 22
REMARK SMILES IDX 10 23 11 24 12 25 13 26 17 27 14 28 16 29 15 30 19 31 20 32
REMARK SMILES IDX 21 33 22 34 23 35 27 36 24 37 26 38 25 39
REMARK H PARENT
ROOT
ATOM      1  C   UNL     1     -21.636   1.194  10.662  1.00  0.00    +0.075 C 
ATOM      2  C   UNL     1     -22.918   0.431  10.333  1.00  0.00    +0.166 C 
ATOM      3  C   UNL     1     -22.601  -1.016   9.979  1.00  0.00    +0.075 C 
ATOM      4  O   UNL     1     -23.567   1.057   9.225  1.00  0.00    -0.319 OA
ATOM      5  C   UNL     1     -24.530   1.936   9.802  1.00  0.00    +0.287 C 
ATOM      6  O   UNL     1     -25.644   2.089   8.929  1.00  0.00    -0.339 OA
ATOM      7  C   UNL     1     -26.852   2.520   9.586  1.00  0.00    +0.204 C 
ATOM      8  C   UNL     1     -27.325   1.464  10.628  1.00  0.00    +0.253 C 
ATOM      9  C   UNL     1     -26.190   0.499  11.035  1.00  0.00    +0.254 C 
ATOM     10  C   UNL     1     -24.880   1.288  11.132  1.00  0.00    +0.223 C 
ATOM     11  O   UNL     1     -23.769   0.459  11.484  1.00  0.00    -0.338 OA
ENDROOT
BRANCH   9  12
ATOM     12  O   UNL     1     -26.049  -0.544  10.044  1.00  0.00    -0.452 OA
BRANCH  12  13
ATOM     13  C   UNL     1     -26.126  -1.816  10.499  1.00  0.00    +0.338 C 
ATOM     14  O   UNL     1     -25.277  -2.678  10.344  1.00  0.00    -0.246 OA
BRANCH  13  15
ATOM     15  C   UNL     1     -27.403  -2.028  11.233  1.00  0.00    +0.060 A 
ATOM     16  C   UNL     1     -27.375  -2.800  12.402  1.00  0.00    +0.015 A 
ATOM     17  C   UNL     1     -28.615  -1.471  10.801  1.00  0.00    +0.015 A 
ATOM     18  C   UNL     1     -28.548  -3.020  13.126  1.00  0.00    +0.001 A 
ATOM     19  C   UNL     1     -29.786  -1.695  11.529  1.00  0.00    +0.001 A 
ATOM     20  C   UNL     1     -29.751  -2.469  12.689  1.00  0.00    +0.000 A 
ENDBRANCH  13  15
ENDBRANCH  12  13
ENDBRANCH   9  12
BRANCH   7  21
ATOM     21  C   UNL     1     -26.711   3.958  10.120  1.00  0.00    +0.269 C 
BRANCH  21  22
ATOM     22  O   UNL     1     -27.212   4.870   9.126  1.00  0.00    -0.459 OA
BRANCH  22  23
ATOM     23  C   UNL     1     -26.268   5.640   8.535  1.00  0.00    +0.338 C 
ATOM     24  O   UNL     1     -25.064   5.453   8.588  1.00  0.00    -0.246 OA
BRANCH  23  25
ATOM     25  C   UNL     1     -26.902   6.768   7.798  1.00  0.00    +0.060 A 
ATOM     26  C   UNL     1     -28.162   7.274   8.141  1.00  0.00    +0.015 A 
ATOM     27  C   UNL     1     -26.203   7.328   6.719  1.00  0.00    +0.015 A 
ATOM     28  C   UNL     1     -28.714   8.332   7.414  1.00  0.00    +0.001 A 
ATOM     29  C   UNL     1     -26.758   8.385   5.996  1.00  0.00    +0.001 A 
ATOM     30  C   UNL     1     -28.011   8.887   6.344  1.00  0.00    +0.000 A 
ENDBRANCH  23  25
ENDBRANCH  22  23
ENDBRANCH  21  22
ENDBRANCH   7  21
BRANCH   8  31
ATOM     31  O   UNL     1     -27.836   2.070  11.835  1.00  0.00    -0.452 OA
BRANCH  31  32
ATOM     32  C   UNL     1     -29.057   1.632  12.238  1.00  0.00    +0.338 C 
ATOM     33  O   UNL     1     -30.096   1.783  11.615  1.00  0.00    -0.246 OA
BRANCH  32  34
ATOM     34  C   UNL     1     -28.972   0.967  13.565  1.00  0.00    +0.060 A 
ATOM     35  C   UNL     1     -30.145   0.859  14.325  1.00  0.00    +0.015 A 
ATOM     36  C   UNL     1     -27.773   0.445  14.070  1.00  0.00    +0.015 A 
ATOM     37  C   UNL     1     -30.119   0.238  15.576  1.00  0.00    +0.001 A 
ATOM     38  C   UNL     1     -27.752  -0.175  15.321  1.00  0.00    +0.001 A 
ATOM     39  C   UNL     1     -28.923  -0.278  16.072  1.00  0.00    +0.000 A 
ENDBRANCH  32  34
ENDBRANCH  31  32
ENDBRANCH   8  31
TORSDOF 10
ENDMDL
MODEL 2
REMARK VINA RESULT:    -9.896      1.687      5.116
REMARK INTER + INTRA:         -18.072
REMARK INTER:                 -16.216
REMARK INTRA:                  -1.856
REMARK UNBOUND:                -2.390
REMARK SMILES CC1(C)O[C@H]2O[C@H](COC(=O)c3ccccc3)[C@H](OC(=O)c3ccccc3)[C@@H](OC(=O)c3ccccc3)[C@H]2O1
REMARK SMILES IDX 1 1 2 2 3 3 4 4 5 5 6 6 7 7 18 8 28 9 38 10 39 11 29 12
REMARK SMILES IDX 30 13 31 14 32 15 33 16 37 17 34 18 36 19 35 20 8 21 9 22
REMARK SMILES IDX 10 23 11 24 12 25 13 26 17 27 14 28 16 29 15 30 19 31 20 32
REMARK SMILES IDX 21 33 22 34 23 35 27 36 24 37 26 38 25 39
REMARK H PARENT
ROOT
ATOM      1  C   UNL     1     -32.713   0.251  10.289  1.00  0.00    +0.075 C 
ATOM      2  C   UNL     1     -31.481  -0.140  11.105  1.00  0.00    +0.166 C 
ATOM      3  C   UNL     1     -31.854  -1.157  12.176  1.00  0.00    +0.075 C 
ATOM      4  O   UNL     1     -30.942   1.026  11.730  1.00  0.00    -0.319 OA
ATOM      5  C   UNL     1     -29.913   1.479  10.853  1.00  0.00    +0.287 C 
ATOM      6  O   UNL     1     -28.893   2.144  11.591  1.00  0.00    -0.339 OA
ATOM      7  C   UNL     1     -27.617   2.192  10.922  1.00  0.00    +0.204 C 
ATOM      8  C   UNL     1     -27.054   0.758  10.697  1.00  0.00    +0.253 C 
ATOM      9  C   UNL     1     -28.154  -0.322  10.794  1.00  0.00    +0.254 C 
ATOM     10  C   UNL     1     -29.436   0.217  10.151  1.00  0.00    +0.223 C 
ATOM     11  O   UNL     1     -30.516  -0.718  10.221  1.00  0.00    -0.338 OA
ENDROOT
BRANCH   9  12
ATOM     12  O   UNL     1     -28.411  -0.642  12.180  1.00  0.00    -0.452 OA
BRANCH  12  13
ATOM     13  C   UNL     1     -28.171  -1.921  12.553  1.00  0.00    +0.338 C 
ATOM     14  O   UNL     1     -27.387  -2.683  12.012  1.00  0.00    -0.246 OA
BRANCH  13  15
ATOM     15  C   UNL     1     -28.999  -2.280  13.735  1.00  0.00    +0.060 A 
ATOM     16  C   UNL     1     -29.203  -1.307  14.723  1.00  0.00    +0.015 A 
ATOM     17  C   UNL     1     -29.588  -3.545  13.879  1.00  0.00    +0.015 A 
ATOM     18  C   UNL     1     -29.978  -1.598  15.846  1.00  0.00    +0.001 A 
ATOM     19  C   UNL     1     -30.363  -3.831  15.006  1.00  0.00    +0.001 A 
ATOM     20  C   UNL     1     -30.555  -2.859  15.988  1.00  0.00    +0.000 A 
ENDBRANCH  13  15
ENDBRANCH  12  13
ENDBRANCH   9  12
BRANCH   7  21
ATOM     21  C   UNL     1     -27.683   3.081   9.666  1.00  0.00    +0.269 C 
BRANCH  21  22
ATOM     22  O   UNL     1     -26.981   4.308   9.933  1.00  0.00    -0.459 OA
BRANCH  22  23
ATOM     23  C   UNL     1     -26.037   4.632   9.018  1.00  0.00    +0.338 C 
ATOM     24  O   UNL     1     -25.006   4.012   8.812  1.00  0.00    -0.246 OA
BRANCH  23  25
ATOM     25  C   UNL     1     -26.426   5.864   8.280  1.00  0.00    +0.060 A 
ATOM     26  C   UNL     1     -27.692   6.451   8.414  1.00  0.00    +0.015 A 
ATOM     27  C   UNL     1     -25.485   6.444   7.417  1.00  0.00    +0.015 A 
ATOM     28  C   UNL     1     -28.008   7.607   7.697  1.00  0.00    +0.001 A 
ATOM     29  C   UNL     1     -25.806   7.599   6.702  1.00  0.00    +0.001 A 
ATOM     30  C   UNL     1     -27.066   8.180   6.842  1.00  0.00    +0.000 A 
ENDBRANCH  23  25
ENDBRANCH  22  23
ENDBRANCH  21  22
ENDBRANCH   7  21
BRANCH   8  31
ATOM     31  O   UNL     1     -26.413   0.612   9.411  1.00  0.00    -0.452 OA
BRANCH  31  32
ATOM     32  C   UNL     1     -25.523  -0.409   9.314  1.00  0.00    +0.338 C 
ATOM     33  O   UNL     1     -25.769  -1.511   8.851  1.00  0.00    -0.246 OA
BRANCH  32  34
ATOM     34  C   UNL     1     -24.204  -0.021   9.881  1.00  0.00    +0.060 A 
ATOM     35  C   UNL     1     -23.362  -1.038  10.350  1.00  0.00    +0.015 A 
ATOM     36  C   UNL     1     -23.780   1.313   9.953  1.00  0.00    +0.015 A 
ATOM     37  C   UNL     1     -22.111  -0.726  10.886  1.00  0.00    +0.001 A 
ATOM     38  C   UNL     1     -22.528   1.621  10.490  1.00  0.00    +0.001 A 
ATOM     39  C   UNL     1     -21.696   0.603  10.956  1.00  0.00    +0.000 A 
ENDBRANCH  32  34
ENDBRANCH  31  32
ENDBRANCH   8  31
TORSDOF 10
ENDMDL
MODEL 3
REMARK VINA RESULT:    -9.562      1.378      2.169
REMARK INTER + INTRA:         -17.542
REMARK INTER:                 -16.117
REMARK INTRA:                  -1.425
REMARK UNBOUND:                -2.390
REMARK SMILES CC1(C)O[C@H]2O[C@H](COC(=O)c3ccccc3)[C@H](OC(=O)c3ccccc3)[C@@H](OC(=O)c3ccccc3)[C@H]2O1
REMARK SMILES IDX 1 1 2 2 3 3 4 4 5 5 6 6 7 7 18 8 28 9 38 10 39 11 29 12
REMARK SMILES IDX 30 13 31 14 32 15 33 16 37 17 34 18 36 19 35 20 8 21 9 22
REMARK SMILES IDX 10 23 11 24 12 25 13 26 17 27 14 28 16 29 15 30 19 31 20 32
REMARK SMILES IDX 21 33 22 34 23 35 27 36 24 37 26 38 25 39
REMARK H PARENT
ROOT
ATOM      1  C   UNL     1     -21.874   1.947  10.698  1.00  0.00    +0.075 C 
ATOM      2  C   UNL     1     -22.967   0.893  10.524  1.00  0.00    +0.166 C 
ATOM      3  C   UNL     1     -22.355  -0.498  10.430  1.00  0.00    +0.075 C 
ATOM      4  O   UNL     1     -23.700   1.168   9.330  1.00  0.00    -0.319 OA
ATOM      5  C   UNL     1     -24.835   1.921   9.751  1.00  0.00    +0.287 C 
ATOM      6  O   UNL     1     -25.934   1.688   8.877  1.00  0.00    -0.339 OA
ATOM      7  C   UNL     1     -27.222   1.973   9.460  1.00  0.00    +0.204 C 
ATOM      8  C   UNL     1     -27.498   1.044  10.678  1.00  0.00    +0.253 C 
ATOM      9  C   UNL     1     -26.202   0.418  11.239  1.00  0.00    +0.254 C 
ATOM     10  C   UNL     1     -25.082   1.461  11.180  1.00  0.00    +0.223 C 
ATOM     11  O   UNL     1     -23.836   0.951  11.661  1.00  0.00    -0.338 OA
ENDROOT
BRANCH   9  12
ATOM     12  O   UNL     1     -25.828  -0.733  10.448  1.00  0.00    -0.452 OA
BRANCH  12  13
ATOM     13  C   UNL     1     -26.508  -1.877  10.697  1.00  0.00    +0.338 C 
ATOM     14  O   UNL     1     -27.704  -1.955  10.929  1.00  0.00    -0.246 OA
BRANCH  13  15
ATOM     15  C   UNL     1     -25.593  -3.047  10.642  1.00  0.00    +0.060 A 
ATOM     16  C   UNL     1     -24.362  -2.896   9.989  1.00  0.00    +0.015 A 
ATOM     17  C   UNL     1     -25.915  -4.278  11.233  1.00  0.00    +0.015 A 
ATOM     18  C   UNL     1     -23.468  -3.967   9.920  1.00  0.00    +0.001 A 
ATOM     19  C   UNL     1     -25.018  -5.346  11.159  1.00  0.00    +0.001 A 
ATOM     20  C   UNL     1     -23.798  -5.189  10.502  1.00  0.00    +0.000 A 
ENDBRANCH  13  15
ENDBRANCH  12  13
ENDBRANCH   9  12
BRANCH   7  21
ATOM     21  C   UNL     1     -27.387   3.481   9.727  1.00  0.00    +0.269 C 
BRANCH  21  22
ATOM     22  O   UNL     1     -27.129   4.196   8.506  1.00  0.00    -0.459 OA
BRANCH  22  23
ATOM     23  C   UNL     1     -26.228   5.201   8.616  1.00  0.00    +0.338 C 
ATOM     24  O   UNL     1     -25.151   5.130   9.186  1.00  0.00    -0.246 OA
BRANCH  23  25
ATOM     25  C   UNL     1     -26.729   6.428   7.938  1.00  0.00    +0.060 A 
ATOM     26  C   UNL     1     -27.984   6.983   8.224  1.00  0.00    +0.015 A 
ATOM     27  C   UNL     1     -25.909   7.035   6.977  1.00  0.00    +0.015 A 
ATOM     28  C   UNL     1     -28.409   8.135   7.557  1.00  0.00    +0.001 A 
ATOM     29  C   UNL     1     -26.337   8.186   6.314  1.00  0.00    +0.001 A 
ATOM     30  C   UNL     1     -27.585   8.736   6.604  1.00  0.00    +0.000 A 
ENDBRANCH  23  25
ENDBRANCH  22  23
ENDBRANCH  21  22
ENDBRANCH   7  21
BRANCH   8  31
ATOM     31  O   UNL     1     -28.152   1.737  11.764  1.00  0.00    -0.452 OA
BRANCH  31  32
ATOM     32  C   UNL     1     -29.435   1.364  12.008  1.00  0.00    +0.338 C 
ATOM     33  O   UNL     1     -30.373   1.541  11.247  1.00  0.00    -0.246 OA
BRANCH  32  34
ATOM     34  C   UNL     1     -29.560   0.735  13.349  1.00  0.00    +0.060 A 
ATOM     35  C   UNL     1     -30.125  -0.545  13.428  1.00  0.00    +0.015 A 
ATOM     36  C   UNL     1     -29.128   1.372  14.521  1.00  0.00    +0.015 A 
ATOM     37  C   UNL     1     -30.260  -1.181  14.664  1.00  0.00    +0.001 A 
ATOM     38  C   UNL     1     -29.265   0.732  15.755  1.00  0.00    +0.001 A 
ATOM     39  C   UNL     1     -29.830  -0.542  15.826  1.00  0.00    +0.000 A 
ENDBRANCH  32  34
ENDBRANCH  31  32
ENDBRANCH   8  31
TORSDOF 10
ENDMDL
MODEL 4
REMARK VINA RESULT:    -9.361      5.362      8.716
REMARK INTER + INTRA:         -17.224
REMARK INTER:                 -13.868
REMARK INTRA:                  -3.355
REMARK UNBOUND:                -2.390
REMARK SMILES CC1(C)O[C@H]2O[C@H](COC(=O)c3ccccc3)[C@H](OC(=O)c3ccccc3)[C@@H](OC(=O)c3ccccc3)[C@H]2O1
REMARK SMILES IDX 1 1 2 2 3 3 4 4 5 5 6 6 7 7 18 8 28 9 38 10 39 11 29 12
REMARK SMILES IDX 30 13 31 14 32 15 33 16 37 17 34 18 36 19 35 20 8 21 9 22
REMARK SMILES IDX 10 23 11 24 12 25 13 26 17 27 14 28 16 29 15 30 19 31 20 32
REMARK SMILES IDX 21 33 22 34 23 35 27 36 24 37 26 38 25 39
REMARK H PARENT
ROOT
ATOM      1  C   UNL     1     -34.022   6.327   5.787  1.00  0.00    +0.075 C 
ATOM      2  C   UNL     1     -34.396   5.784   7.165  1.00  0.00    +0.166 C 
ATOM      3  C   UNL     1     -35.785   6.261   7.567  1.00  0.00    +0.075 C 
ATOM      4  O   UNL     1     -33.443   6.244   8.126  1.00  0.00    -0.319 OA
ATOM      5  C   UNL     1     -32.489   5.190   8.241  1.00  0.00    +0.287 C 
ATOM      6  O   UNL     1     -31.925   5.176   9.547  1.00  0.00    -0.339 OA
ATOM      7  C   UNL     1     -31.357   3.908   9.931  1.00  0.00    +0.204 C 
ATOM      8  C   UNL     1     -32.450   2.801   9.974  1.00  0.00    +0.253 C 
ATOM      9  C   UNL     1     -33.709   3.193   9.169  1.00  0.00    +0.254 C 
ATOM     10  C   UNL     1     -33.274   3.933   7.900  1.00  0.00    +0.223 C 
ATOM     11  O   UNL     1     -34.387   4.354   7.106  1.00  0.00    -0.338 OA
ENDROOT
BRANCH   9  12
ATOM     12  O   UNL     1     -34.554   4.056   9.962  1.00  0.00    -0.452 OA
BRANCH  12  13
ATOM     13  C   UNL     1     -35.671   3.491  10.478  1.00  0.00    +0.338 C 
ATOM     14  O   UNL     1     -35.732   2.392  11.005  1.00  0.00    -0.246 OA
BRANCH  13  15
ATOM     15  C   UNL     1     -36.834   4.404  10.320  1.00  0.00    +0.060 A 
ATOM     16  C   UNL     1     -36.747   5.690  10.869  1.00  0.00    +0.015 A 
ATOM     17  C   UNL     1     -37.996   4.024   9.632  1.00  0.00    +0.015 A 
ATOM     18  C   UNL     1     -37.812   6.583  10.740  1.00  0.00    +0.001 A 
ATOM     19  C   UNL     1     -39.059   4.921   9.506  1.00  0.00    +0.001 A 
ATOM     20  C   UNL     1     -38.967   6.197  10.061  1.00  0.00    +0.000 A 
ENDBRANCH  13  15
ENDBRANCH  12  13
ENDBRANCH   9  12
BRANCH   7  21
ATOM     21  C   UNL     1     -30.115   3.578   9.082  1.00  0.00    +0.269 C 
BRANCH  21  22
ATOM     22  O   UNL     1     -29.042   3.201   9.964  1.00  0.00    -0.459 OA
BRANCH  22  23
ATOM     23  C   UNL     1     -27.809   3.584   9.553  1.00  0.00    +0.338 C 
ATOM     24  O   UNL     1     -27.562   4.562   8.867  1.00  0.00    -0.246 OA
BRANCH  23  25
ATOM     25  C   UNL     1     -26.775   2.639  10.058  1.00  0.00    +0.060 A 
ATOM     26  C   UNL     1     -26.258   2.718  11.358  1.00  0.00    +0.015 A 
ATOM     27  C   UNL     1     -26.306   1.646   9.188  1.00  0.00    +0.015 A 
ATOM     28  C   UNL     1     -25.286   1.808  11.782  1.00  0.00    +0.001 A 
ATOM     29  C   UNL     1     -25.335   0.738   9.615  1.00  0.00    +0.001 A 
ATOM     30  C   UNL     1     -24.826   0.819  10.911  1.00  0.00    +0.000 A 
ENDBRANCH  23  25
ENDBRANCH  22  23
ENDBRANCH  21  22
ENDBRANCH   7  21
BRANCH   8  31
ATOM     31  O   UNL     1     -31.978   1.538   9.457  1.00  0.00    -0.452 OA
BRANCH  31  32
ATOM     32  C   UNL     1     -32.036   0.492  10.322  1.00  0.00    +0.338 C 
ATOM     33  O   UNL     1     -33.053  -0.111  10.625  1.00  0.00    -0.246 OA
BRANCH  32  34
ATOM     34  C   UNL     1     -30.694   0.194  10.887  1.00  0.00    +0.060 A 
ATOM     35  C   UNL     1     -30.391   0.684  12.165  1.00  0.00    +0.015 A 
ATOM     36  C   UNL     1     -29.736  -0.558  10.192  1.00  0.00    +0.015 A 
ATOM     37  C   UNL     1     -29.146   0.426  12.741  1.00  0.00    +0.001 A 
ATOM     38  C   UNL     1     -28.491  -0.812  10.773  1.00  0.00    +0.001 A 
ATOM     39  C   UNL     1     -28.198  -0.322  12.045  1.00  0.00    +0.000 A 
ENDBRANCH  32  34
ENDBRANCH  31  32
ENDBRANCH   8  31
TORSDOF 10
ENDMDL
MODEL 5
REMARK VINA RESULT:    -9.332      1.891      3.908
REMARK INTER + INTRA:         -17.177
REMARK INTER:                 -15.292
REMARK INTRA:                  -1.885
REMARK UNBOUND:                -2.390
REMARK SMILES CC1(C)O[C@H]2O[C@H](COC(=O)c3ccccc3)[C@H](OC(=O)c3ccccc3)[C@@H](OC(=O)c3ccccc3)[C@H]2O1
REMARK SMILES IDX 1 1 2 2 3 3 4 4 5 5 6 6 7 7 18 8 28 9 38 10 39 11 29 12
REMARK SMILES IDX 30 13 31 14 32 15 33 16 37 17 34 18 36 19 35 20 8 21 9 22
REMARK SMILES IDX 10 23 11 24 12 25 13 26 17 27 14 28 16 29 15 30 19 31 20 32
REMARK SMILES IDX 21 33 22 34 23 35 27 36 24 37 26 38 25 39
REMARK H PARENT
ROOT
ATOM      1  C   UNL     1     -22.082   2.383  10.937  1.00  0.00    +0.075 C 
ATOM      2  C   UNL     1     -22.760   1.111  10.431  1.00  0.00    +0.166 C 
ATOM      3  C   UNL     1     -21.718   0.095   9.983  1.00  0.00    +0.075 C 
ATOM      4  O   UNL     1     -23.607   1.436   9.328  1.00  0.00    -0.319 OA
ATOM      5  C   UNL     1     -24.906   1.610   9.891  1.00  0.00    +0.287 C 
ATOM      6  O   UNL     1     -25.906   1.266   8.939  1.00  0.00    -0.339 OA
ATOM      7  C   UNL     1     -27.180   0.923   9.520  1.00  0.00    +0.204 C 
ATOM      8  C   UNL     1     -27.057  -0.341  10.421  1.00  0.00    +0.253 C 
ATOM      9  C   UNL     1     -25.597  -0.616  10.843  1.00  0.00    +0.254 C 
ATOM     10  C   UNL     1     -24.902   0.720  11.124  1.00  0.00    +0.223 C 
ATOM     11  O   UNL     1     -23.533   0.554  11.500  1.00  0.00    -0.338 OA
ENDROOT
BRANCH   9  12
ATOM     12  O   UNL     1     -24.898  -1.306   9.782  1.00  0.00    -0.452 OA
BRANCH  12  13
ATOM     13  C   UNL     1     -24.778  -2.647   9.918  1.00  0.00    +0.338 C 
ATOM     14  O   UNL     1     -25.662  -3.406  10.282  1.00  0.00    -0.246 OA
BRANCH  13  15
ATOM     15  C   UNL     1     -23.404  -3.085   9.554  1.00  0.00    +0.060 A 
ATOM     16  C   UNL     1     -23.003  -2.966   8.215  1.00  0.00    +0.015 A 
ATOM     17  C   UNL     1     -22.503  -3.591  10.502  1.00  0.00    +0.015 A 
ATOM     18  C   UNL     1     -21.721  -3.358   7.829  1.00  0.00    +0.001 A 
ATOM     19  C   UNL     1     -21.221  -3.983  10.109  1.00  0.00    +0.001 A 
ATOM     20  C   UNL     1     -20.832  -3.867   8.774  1.00  0.00    +0.000 A 
ENDBRANCH  13  15
ENDBRANCH  12  13
ENDBRANCH   9  12
BRANCH   7  21
ATOM     21  C   UNL     1     -27.833   2.149  10.187  1.00  0.00    +0.269 C 
BRANCH  21  22
ATOM     22  O   UNL     1     -27.195   3.338   9.688  1.00  0.00    -0.459 OA
BRANCH  22  23
ATOM     23  C   UNL     1     -28.036   4.242   9.131  1.00  0.00    +0.338 C 
ATOM     24  O   UNL     1     -29.255   4.202   9.181  1.00  0.00    -0.246 OA
BRANCH  23  25
ATOM     25  C   UNL     1     -27.268   5.312   8.439  1.00  0.00    +0.060 A 
ATOM     26  C   UNL     1     -27.835   6.551   8.113  1.00  0.00    +0.015 A 
ATOM     27  C   UNL     1     -25.932   5.053   8.100  1.00  0.00    +0.015 A 
ATOM     28  C   UNL     1     -27.070   7.521   7.459  1.00  0.00    +0.001 A 
ATOM     29  C   UNL     1     -25.172   6.026   7.447  1.00  0.00    +0.001 A 
ATOM     30  C   UNL     1     -25.741   7.258   7.128  1.00  0.00    +0.000 A 
ENDBRANCH  23  25
ENDBRANCH  22  23
ENDBRANCH  21  22
ENDBRANCH   7  21
BRANCH   8  31
ATOM     31  O   UNL     1     -27.847  -0.239  11.626  1.00  0.00    -0.452 OA
BRANCH  31  32
ATOM     32  C   UNL     1     -28.729  -1.251  11.834  1.00  0.00    +0.338 C 
ATOM     33  O   UNL     1     -28.424  -2.411  12.058  1.00  0.00    -0.246 OA
BRANCH  32  34
ATOM     34  C   UNL     1     -30.130  -0.766  11.720  1.00  0.00    +0.060 A 
ATOM     35  C   UNL     1     -30.477   0.415  12.390  1.00  0.00    +0.015 A 
ATOM     36  C   UNL     1     -31.101  -1.442  10.967  1.00  0.00    +0.015 A 
ATOM     37  C   UNL     1     -31.778   0.915  12.309  1.00  0.00    +0.001 A 
ATOM     38  C   UNL     1     -32.401  -0.938  10.890  1.00  0.00    +0.001 A 
ATOM     39  C   UNL     1     -32.739   0.238  11.559  1.00  0.00    +0.000 A 
ENDBRANCH  32  34
ENDBRANCH  31  32
ENDBRANCH   8  31
TORSDOF 10
ENDMDL
MODEL 6
REMARK VINA RESULT:    -9.217      6.241     10.319
REMARK INTER + INTRA:         -16.995
REMARK INTER:                 -14.276
REMARK INTRA:                  -2.720
REMARK UNBOUND:                -2.390
REMARK SMILES CC1(C)O[C@H]2O[C@H](COC(=O)c3ccccc3)[C@H](OC(=O)c3ccccc3)[C@@H](OC(=O)c3ccccc3)[C@H]2O1
REMARK SMILES IDX 1 1 2 2 3 3 4 4 5 5 6 6 7 7 18 8 28 9 38 10 39 11 29 12
REMARK SMILES IDX 30 13 31 14 32 15 33 16 37 17 34 18 36 19 35 20 8 21 9 22
REMARK SMILES IDX 10 23 11 24 12 25 13 26 17 27 14 28 16 29 15 30 19 31 20 32
REMARK SMILES IDX 21 33 22 34 23 35 27 36 24 37 26 38 25 39
REMARK H PARENT
ROOT
ATOM      1  C   UNL     1     -32.021  11.993   7.266  1.00  0.00    +0.075 C 
ATOM      2  C   UNL     1     -31.063  10.815   7.090  1.00  0.00    +0.166 C 
ATOM      3  C   UNL     1     -29.646  11.314   6.838  1.00  0.00    +0.075 C 
ATOM      4  O   UNL     1     -31.490  10.025   5.979  1.00  0.00    -0.319 OA
ATOM      5  C   UNL     1     -32.280   8.981   6.543  1.00  0.00    +0.287 C 
ATOM      6  O   UNL     1     -32.199   7.811   5.737  1.00  0.00    -0.339 OA
ATOM      7  C   UNL     1     -32.521   6.591   6.434  1.00  0.00    +0.204 C 
ATOM      8  C   UNL     1     -31.512   6.329   7.591  1.00  0.00    +0.253 C 
ATOM      9  C   UNL     1     -30.752   7.610   8.001  1.00  0.00    +0.254 C 
ATOM     10  C   UNL     1     -31.717   8.799   7.944  1.00  0.00    +0.223 C 
ATOM     11  O   UNL     1     -31.082  10.033   8.289  1.00  0.00    -0.338 OA
ENDROOT
BRANCH   9  12
ATOM     12  O   UNL     1     -29.650   7.843   7.095  1.00  0.00    -0.452 OA
BRANCH  12  13
ATOM     13  C   UNL     1     -28.411   7.801   7.636  1.00  0.00    +0.338 C 
ATOM     14  O   UNL     1     -28.086   7.150   8.616  1.00  0.00    -0.246 OA
BRANCH  13  15
ATOM     15  C   UNL     1     -27.478   8.663   6.864  1.00  0.00    +0.060 A 
ATOM     16  C   UNL     1     -27.752   8.888   5.508  1.00  0.00    +0.015 A 
ATOM     17  C   UNL     1     -26.354   9.263   7.450  1.00  0.00    +0.015 A 
ATOM     18  C   UNL     1     -26.907   9.696   4.745  1.00  0.00    +0.001 A 
ATOM     19  C   UNL     1     -25.511  10.070   6.681  1.00  0.00    +0.001 A 
ATOM     20  C   UNL     1     -25.788  10.284   5.331  1.00  0.00    +0.000 A 
ENDBRANCH  13  15
ENDBRANCH  12  13
ENDBRANCH   9  12
BRANCH   7  21
ATOM     21  C   UNL     1     -34.008   6.557   6.834  1.00  0.00    +0.269 C 
BRANCH  21  22
ATOM     22  O   UNL     1     -34.635   5.439   6.181  1.00  0.00    -0.459 OA
BRANCH  22  23
ATOM     23  C   UNL     1     -34.808   4.348   6.964  1.00  0.00    +0.338 C 
ATOM     24  O   UNL     1     -34.262   3.268   6.807  1.00  0.00    -0.246 OA
BRANCH  23  25
ATOM     25  C   UNL     1     -35.767   4.642   8.064  1.00  0.00    +0.060 A 
ATOM     26  C   UNL     1     -35.801   5.881   8.719  1.00  0.00    +0.015 A 
ATOM     27  C   UNL     1     -36.657   3.631   8.454  1.00  0.00    +0.015 A 
ATOM     28  C   UNL     1     -36.719   6.105   9.747  1.00  0.00    +0.001 A 
ATOM     29  C   UNL     1     -37.573   3.860   9.482  1.00  0.00    +0.001 A 
ATOM     30  C   UNL     1     -37.604   5.095  10.128  1.00  0.00    +0.000 A 
ENDBRANCH  23  25
ENDBRANCH  22  23
ENDBRANCH  21  22
ENDBRANCH   7  21
BRANCH   8  31
ATOM     31  O   UNL     1     -32.153   5.805   8.774  1.00  0.00    -0.452 OA
BRANCH  31  32
ATOM     32  C   UNL     1     -31.601   4.674   9.286  1.00  0.00    +0.338 C 
ATOM     33  O   UNL     1     -30.423   4.366   9.193  1.00  0.00    -0.246 OA
BRANCH  32  34
ATOM     34  C   UNL     1     -32.631   3.834   9.951  1.00  0.00    +0.060 A 
ATOM     35  C   UNL     1     -32.694   2.475   9.613  1.00  0.00    +0.015 A 
ATOM     36  C   UNL     1     -33.525   4.350  10.900  1.00  0.00    +0.015 A 
ATOM     37  C   UNL     1     -33.639   1.642  10.215  1.00  0.00    +0.001 A 
ATOM     38  C   UNL     1     -34.469   3.513  11.499  1.00  0.00    +0.001 A 
ATOM     39  C   UNL     1     -34.526   2.162  11.157  1.00  0.00    +0.000 A 
ENDBRANCH  32  34
ENDBRANCH  31  32
ENDBRANCH   8  31
TORSDOF 10
ENDMDL
MODEL 7
REMARK VINA RESULT:    -9.030      5.329      8.258
REMARK INTER + INTRA:         -16.699
REMARK INTER:                 -14.707
REMARK INTRA:                  -1.992
REMARK UNBOUND:                -2.390
REMARK SMILES CC1(C)O[C@H]2O[C@H](COC(=O)c3ccccc3)[C@H](OC(=O)c3ccccc3)[C@@H](OC(=O)c3ccccc3)[C@H]2O1
REMARK SMILES IDX 1 1 2 2 3 3 4 4 5 5 6 6 7 7 18 8 28 9 38 10 39 11 29 12
REMARK SMILES IDX 30 13 31 14 32 15 33 16 37 17 34 18 36 19 35 20 8 21 9 22
REMARK SMILES IDX 10 23 11 24 12 25 13 26 17 27 14 28 16 29 15 30 19 31 20 32
REMARK SMILES IDX 21 33 22 34 23 35 27 36 24 37 26 38 25 39
REMARK H PARENT
ROOT
ATOM      1  C   UNL     1     -33.924   6.297   5.905  1.00  0.00    +0.075 C 
ATOM      2  C   UNL     1     -34.321   5.736   7.270  1.00  0.00    +0.166 C 
ATOM      3  C   UNL     1     -35.700   6.240   7.672  1.00  0.00    +0.075 C 
ATOM      4  O   UNL     1     -33.364   6.152   8.246  1.00  0.00    -0.319 OA
ATOM      5  C   UNL     1     -32.437   5.073   8.346  1.00  0.00    +0.287 C 
ATOM      6  O   UNL     1     -31.883   5.019   9.656  1.00  0.00    -0.339 OA
ATOM      7  C   UNL     1     -31.351   3.729  10.018  1.00  0.00    +0.204 C 
ATOM      8  C   UNL     1     -32.472   2.649  10.032  1.00  0.00    +0.253 C 
ATOM      9  C   UNL     1     -33.714   3.089   9.226  1.00  0.00    +0.254 C 
ATOM     10  C   UNL     1     -33.252   3.843   7.975  1.00  0.00    +0.223 C 
ATOM     11  O   UNL     1     -34.347   4.308   7.182  1.00  0.00    -0.338 OA
ENDROOT
BRANCH   9  12
ATOM     12  O   UNL     1     -34.543   3.957  10.031  1.00  0.00    -0.452 OA
BRANCH  12  13
ATOM     13  C   UNL     1     -35.667   3.405  10.545  1.00  0.00    +0.338 C 
ATOM     14  O   UNL     1     -35.738   2.313  11.084  1.00  0.00    -0.246 OA
BRANCH  13  15
ATOM     15  C   UNL     1     -36.823   4.323  10.368  1.00  0.00    +0.060 A 
ATOM     16  C   UNL     1     -36.767   5.585  10.975  1.00  0.00    +0.015 A 
ATOM     17  C   UNL     1     -37.948   3.972   9.607  1.00  0.00    +0.015 A 
ATOM     18  C   UNL     1     -37.827   6.481  10.831  1.00  0.00    +0.001 A 
ATOM     19  C   UNL     1     -39.006   4.873   9.467  1.00  0.00    +0.001 A 
ATOM     20  C   UNL     1     -38.945   6.124  10.079  1.00  0.00    +0.000 A 
ENDBRANCH  13  15
ENDBRANCH  12  13
ENDBRANCH   9  12
BRANCH   7  21
ATOM     21  C   UNL     1     -30.111   3.384   9.171  1.00  0.00    +0.269 C 
BRANCH  21  22
ATOM     22  O   UNL     1     -29.273   4.550   9.084  1.00  0.00    -0.459 OA
BRANCH  22  23
ATOM     23  C   UNL     1     -27.944   4.293   9.051  1.00  0.00    +0.338 C 
ATOM     24  O   UNL     1     -27.399   3.310   9.525  1.00  0.00    -0.246 OA
BRANCH  23  25
ATOM     25  C   UNL     1     -27.219   5.386   8.347  1.00  0.00    +0.060 A 
ATOM     26  C   UNL     1     -27.802   6.637   8.103  1.00  0.00    +0.015 A 
ATOM     27  C   UNL     1     -25.910   5.138   7.912  1.00  0.00    +0.015 A 
ATOM     28  C   UNL     1     -27.078   7.629   7.435  1.00  0.00    +0.001 A 
ATOM     29  C   UNL     1     -25.191   6.132   7.245  1.00  0.00    +0.001 A 
ATOM     30  C   UNL     1     -25.775   7.375   7.007  1.00  0.00    +0.000 A 
ENDBRANCH  23  25
ENDBRANCH  22  23
ENDBRANCH  21  22
ENDBRANCH   7  21
BRANCH   8  31
ATOM     31  O   UNL     1     -32.028   1.385   9.492  1.00  0.00    -0.452 OA
BRANCH  31  32
ATOM     32  C   UNL     1     -32.241   0.303  10.285  1.00  0.00    +0.338 C 
ATOM     33  O   UNL     1     -33.338  -0.112  10.624  1.00  0.00    -0.246 OA
BRANCH  32  34
ATOM     34  C   UNL     1     -30.953  -0.299  10.721  1.00  0.00    +0.060 A 
ATOM     35  C   UNL     1     -29.829  -0.116   9.904  1.00  0.00    +0.015 A 
ATOM     36  C   UNL     1     -30.828  -1.028  11.912  1.00  0.00    +0.015 A 
ATOM     37  C   UNL     1     -28.595  -0.657  10.271  1.00  0.00    +0.001 A 
ATOM     38  C   UNL     1     -29.592  -1.567  12.275  1.00  0.00    +0.001 A 
ATOM     39  C   UNL     1     -28.479  -1.382  11.457  1.00  0.00    +0.000 A 
ENDBRANCH  32  34
ENDBRANCH  31  32
ENDBRANCH   8  31
TORSDOF 10
ENDMDL
MODEL 8
REMARK VINA RESULT:    -8.659      4.088      7.520
REMARK INTER + INTRA:         -16.111
REMARK INTER:                 -14.986
REMARK INTRA:                  -1.125
REMARK UNBOUND:                -2.390
REMARK SMILES CC1(C)O[C@H]2O[C@H](COC(=O)c3ccccc3)[C@H](OC(=O)c3ccccc3)[C@@H](OC(=O)c3ccccc3)[C@H]2O1
REMARK SMILES IDX 1 1 2 2 3 3 4 4 5 5 6 6 7 7 18 8 28 9 38 10 39 11 29 12
REMARK SMILES IDX 30 13 31 14 32 15 33 16 37 17 34 18 36 19 35 20 8 21 9 22
REMARK SMILES IDX 10 23 11 24 12 25 13 26 17 27 14 28 16 29 15 30 19 31 20 32
REMARK SMILES IDX 21 33 22 34 23 35 27 36 24 37 26 38 25 39
REMARK H PARENT
ROOT
ATOM      1  C   UNL     1     -36.274   3.226   7.504  1.00  0.00    +0.075 C 
ATOM      2  C   UNL     1     -35.446   3.073   8.780  1.00  0.00    +0.166 C 
ATOM      3  C   UNL     1     -36.220   2.280   9.825  1.00  0.00    +0.075 C 
ATOM      4  O   UNL     1     -35.142   4.368   9.301  1.00  0.00    -0.319 OA
ATOM      5  C   UNL     1     -33.847   4.682   8.792  1.00  0.00    +0.287 C 
ATOM      6  O   UNL     1     -33.155   5.534   9.698  1.00  0.00    -0.339 OA
ATOM      7  C   UNL     1     -31.721   5.507   9.553  1.00  0.00    +0.204 C 
ATOM      8  C   UNL     1     -31.158   4.087   9.857  1.00  0.00    +0.253 C 
ATOM      9  C   UNL     1     -32.249   2.997   9.765  1.00  0.00    +0.254 C 
ATOM     10  C   UNL     1     -33.183   3.328   8.597  1.00  0.00    +0.223 C 
ATOM     11  O   UNL     1     -34.240   2.375   8.456  1.00  0.00    -0.338 OA
ENDROOT
BRANCH   9  12
ATOM     12  O   UNL     1     -33.012   2.955  10.992  1.00  0.00    -0.452 OA
BRANCH  12  13
ATOM     13  C   UNL     1     -33.279   1.726  11.490  1.00  0.00    +0.338 C 
ATOM     14  O   UNL     1     -34.320   1.390  12.031  1.00  0.00    -0.246 OA
BRANCH  13  15
ATOM     15  C   UNL     1     -32.119   0.818  11.281  1.00  0.00    +0.060 A 
ATOM     16  C   UNL     1     -31.221   0.637  12.342  1.00  0.00    +0.015 A 
ATOM     17  C   UNL     1     -31.911   0.135  10.075  1.00  0.00    +0.015 A 
ATOM     18  C   UNL     1     -30.122  -0.211  12.193  1.00  0.00    +0.001 A 
ATOM     19  C   UNL     1     -30.809  -0.711   9.931  1.00  0.00    +0.001 A 
ATOM     20  C   UNL     1     -29.916  -0.882  10.989  1.00  0.00    +0.000 A 
ENDBRANCH  13  15
ENDBRANCH  12  13
ENDBRANCH   9  12
BRANCH   7  21
ATOM     21  C   UNL     1     -31.288   6.114   8.206  1.00  0.00    +0.269 C 
BRANCH  21  22
ATOM     22  O   UNL     1     -31.868   7.425   8.084  1.00  0.00    -0.459 OA
BRANCH  22  23
ATOM     23  C   UNL     1     -31.813   7.957   6.840  1.00  0.00    +0.338 C 
ATOM     24  O   UNL     1     -32.444   7.566   5.872  1.00  0.00    -0.246 OA
BRANCH  23  25
ATOM     25  C   UNL     1     -30.865   9.105   6.806  1.00  0.00    +0.060 A 
ATOM     26  C   UNL     1     -29.478   8.936   6.900  1.00  0.00    +0.015 A 
ATOM     27  C   UNL     1     -31.396  10.397   6.681  1.00  0.00    +0.015 A 
ATOM     28  C   UNL     1     -28.632  10.047   6.864  1.00  0.00    +0.001 A 
ATOM     29  C   UNL     1     -30.547  11.505   6.646  1.00  0.00    +0.001 A 
ATOM     30  C   UNL     1     -29.167  11.330   6.737  1.00  0.00    +0.000 A 
ENDBRANCH  23  25
ENDBRANCH  22  23
ENDBRANCH  21  22
ENDBRANCH   7  21
BRANCH   8  31
ATOM     31  O   UNL     1     -30.090   3.712   8.960  1.00  0.00    -0.452 OA
BRANCH  31  32
ATOM     32  C   UNL     1     -28.967   3.234   9.556  1.00  0.00    +0.338 C 
ATOM     33  O   UNL     1     -28.930   2.286  10.324  1.00  0.00    -0.246 OA
BRANCH  32  34
ATOM     34  C   UNL     1     -27.778   4.042   9.175  1.00  0.00    +0.060 A 
ATOM     35  C   UNL     1     -27.986   5.214   8.435  1.00  0.00    +0.015 A 
ATOM     36  C   UNL     1     -26.474   3.676   9.534  1.00  0.00    +0.015 A 
ATOM     37  C   UNL     1     -26.903   6.011   8.058  1.00  0.00    +0.001 A 
ATOM     38  C   UNL     1     -25.394   4.476   9.154  1.00  0.00    +0.001 A 
ATOM     39  C   UNL     1     -25.608   5.641   8.417  1.00  0.00    +0.000 A 
ENDBRANCH  32  34
ENDBRANCH  31  32
ENDBRANCH   8  31
TORSDOF 10
ENDMDL
