MODEL 1
REMARK VINA RESULT:   -10.167      0.000      0.000
REMARK INTER + INTRA:         -12.864
REMARK INTER:                 -12.247
REMARK INTRA:                  -0.617
REMARK UNBOUND:                -0.617
REMARK SMILES O=C(Oc1ccccc1)c1ccc2ccccc2c1O
REMARK SMILES IDX 19 1 18 2 17 3 16 4 15 5 14 6 13 7 12 8 11 9 10 10 20 11
REMARK SMILES IDX 2 13 1 14 3 15 4 16 5 17 9 18 6 19 8 20 7 21
REMARK H PARENT 20 12
ROOT
ATOM      1  C   UNL     1     -30.366  10.886   6.599  1.00  0.00    +0.137 A 
ATOM      2  C   UNL     1     -29.099  11.309   6.123  1.00  0.00    +0.024 A 
ATOM      3  C   UNL     1     -28.847  12.584   5.561  1.00  0.00    +0.012 A 
ATOM      4  C   UNL     1     -27.577  12.941   5.099  1.00  0.00    +0.001 A 
ATOM      5  C   UNL     1     -26.526  12.039   5.194  1.00  0.00    +0.001 A 
ATOM      6  C   UNL     1     -26.739  10.785   5.762  1.00  0.00    +0.009 A 
ATOM      7  C   UNL     1     -28.007  10.410   6.234  1.00  0.00    -0.015 A 
ATOM      8  C   UNL     1     -28.191   9.153   6.830  1.00  0.00    +0.010 A 
ATOM      9  C   UNL     1     -29.439   8.766   7.315  1.00  0.00    +0.020 A 
ATOM     10  C   UNL     1     -30.533   9.625   7.188  1.00  0.00    +0.102 A 
ENDROOT
BRANCH   1  11
ATOM     11  O   UNL     1     -31.457  11.718   6.521  1.00  0.00    -0.506 OA
ATOM     12  H   UNL     1     -31.318  12.467   7.123  1.00  0.00    +0.293 HD
ENDBRANCH   1  11
BRANCH  10  13
ATOM     13  C   UNL     1     -31.833   9.141   7.703  1.00  0.00    +0.347 C 
ATOM     14  O   UNL     1     -32.730   9.897   8.046  1.00  0.00    -0.246 OA
BRANCH  13  15
ATOM     15  O   UNL     1     -31.781   7.766   7.825  1.00  0.00    -0.423 OA
BRANCH  15  16
ATOM     16  C   UNL     1     -32.587   7.096   6.904  1.00  0.00    +0.131 A 
ATOM     17  C   UNL     1     -32.524   7.426   5.550  1.00  0.00    +0.047 A 
ATOM     18  C   UNL     1     -33.380   6.043   7.356  1.00  0.00    +0.047 A 
ATOM     19  C   UNL     1     -33.297   6.710   4.639  1.00  0.00    +0.004 A 
ATOM     20  C   UNL     1     -34.149   5.329   6.438  1.00  0.00    +0.004 A 
ATOM     21  C   UNL     1     -34.110   5.664   5.082  1.00  0.00    +0.000 A 
ENDBRANCH  15  16
ENDBRANCH  13  15
ENDBRANCH  10  13
TORSDOF 4
ENDMDL
MODEL 2
REMARK VINA RESULT:    -9.875      0.866      2.191
REMARK INTER + INTRA:         -12.513
REMARK INTER:                 -12.188
REMARK INTRA:                  -0.324
REMARK UNBOUND:                -0.617
REMARK SMILES O=C(Oc1ccccc1)c1ccc2ccccc2c1O
REMARK SMILES IDX 19 1 18 2 17 3 16 4 15 5 14 6 13 7 12 8 11 9 10 10 20 11
REMARK SMILES IDX 2 13 1 14 3 15 4 16 5 17 9 18 6 19 8 20 7 21
REMARK H PARENT 20 12
ROOT
ATOM      1  C   UNL     1     -29.245   9.570   7.100  1.00  0.00    +0.137 A 
ATOM      2  C   UNL     1     -28.164  10.279   6.513  1.00  0.00    +0.024 A 
ATOM      3  C   UNL     1     -26.838   9.791   6.446  1.00  0.00    +0.012 A 
ATOM      4  C   UNL     1     -25.812  10.539   5.864  1.00  0.00    +0.001 A 
ATOM      5  C   UNL     1     -26.086  11.789   5.325  1.00  0.00    +0.001 A 
ATOM      6  C   UNL     1     -27.386  12.286   5.356  1.00  0.00    +0.009 A 
ATOM      7  C   UNL     1     -28.430  11.547   5.935  1.00  0.00    -0.015 A 
ATOM      8  C   UNL     1     -29.738  12.056   5.929  1.00  0.00    +0.010 A 
ATOM      9  C   UNL     1     -30.790  11.332   6.488  1.00  0.00    +0.020 A 
ATOM     10  C   UNL     1     -30.544  10.095   7.089  1.00  0.00    +0.102 A 
ENDROOT
BRANCH   1  11
ATOM     11  O   UNL     1     -29.045   8.336   7.669  1.00  0.00    -0.506 OA
ATOM     12  H   UNL     1     -28.625   8.460   8.536  1.00  0.00    +0.293 HD
ENDBRANCH   1  11
BRANCH  10  13
ATOM     13  C   UNL     1     -31.702   9.392   7.683  1.00  0.00    +0.347 C 
ATOM     14  O   UNL     1     -32.662   9.984   8.155  1.00  0.00    -0.246 OA
BRANCH  13  15
ATOM     15  O   UNL     1     -31.439   8.036   7.707  1.00  0.00    -0.423 OA
BRANCH  15  16
ATOM     16  C   UNL     1     -32.292   7.291   6.892  1.00  0.00    +0.131 A 
ATOM     17  C   UNL     1     -33.103   6.302   7.448  1.00  0.00    +0.047 A 
ATOM     18  C   UNL     1     -32.374   7.619   5.540  1.00  0.00    +0.047 A 
ATOM     19  C   UNL     1     -33.987   5.606   6.626  1.00  0.00    +0.004 A 
ATOM     20  C   UNL     1     -33.261   6.919   4.723  1.00  0.00    +0.004 A 
ATOM     21  C   UNL     1     -34.065   5.912   5.265  1.00  0.00    +0.000 A 
ENDBRANCH  15  16
ENDBRANCH  13  15
ENDBRANCH  10  13
TORSDOF 4
ENDMDL
MODEL 3
REMARK VINA RESULT:    -9.672      4.607      6.083
REMARK INTER + INTRA:         -12.269
REMARK INTER:                 -11.718
REMARK INTRA:                  -0.551
REMARK UNBOUND:                -0.617
REMARK SMILES O=C(Oc1ccccc1)c1ccc2ccccc2c1O
REMARK SMILES IDX 19 1 18 2 17 3 16 4 15 5 14 6 13 7 12 8 11 9 10 10 20 11
REMARK SMILES IDX 2 13 1 14 3 15 4 16 5 17 9 18 6 19 8 20 7 21
REMARK H PARENT 20 12
ROOT
ATOM      1  C   UNL     1     -26.283   8.772   6.546  1.00  0.00    +0.137 A 
ATOM      2  C   UNL     1     -26.974   9.963   6.202  1.00  0.00    +0.024 A 
ATOM      3  C   UNL     1     -26.404  11.025   5.461  1.00  0.00    +0.012 A 
ATOM      4  C   UNL     1     -27.131  12.179   5.161  1.00  0.00    +0.001 A 
ATOM      5  C   UNL     1     -28.448  12.299   5.584  1.00  0.00    +0.001 A 
ATOM      6  C   UNL     1     -29.043  11.260   6.297  1.00  0.00    +0.009 A 
ATOM      7  C   UNL     1     -28.328  10.092   6.605  1.00  0.00    -0.015 A 
ATOM      8  C   UNL     1     -28.957   9.046   7.299  1.00  0.00    +0.010 A 
ATOM      9  C   UNL     1     -28.268   7.874   7.605  1.00  0.00    +0.020 A 
ATOM     10  C   UNL     1     -26.926   7.739   7.243  1.00  0.00    +0.102 A 
ENDROOT
BRANCH   1  11
ATOM     11  O   UNL     1     -24.972   8.592   6.177  1.00  0.00    -0.506 OA
ATOM     12  H   UNL     1     -24.434   9.277   6.605  1.00  0.00    +0.293 HD
ENDBRANCH   1  11
BRANCH  10  13
ATOM     13  C   UNL     1     -26.250   6.478   7.620  1.00  0.00    +0.347 C 
ATOM     14  O   UNL     1     -25.418   5.937   6.907  1.00  0.00    -0.246 OA
BRANCH  13  15
ATOM     15  O   UNL     1     -26.803   6.009   8.796  1.00  0.00    -0.423 OA
BRANCH  15  16
ATOM     16  C   UNL     1     -26.300   4.768   9.189  1.00  0.00    +0.131 A 
ATOM     17  C   UNL     1     -25.099   4.693   9.894  1.00  0.00    +0.047 A 
ATOM     18  C   UNL     1     -27.065   3.631   8.939  1.00  0.00    +0.047 A 
ATOM     19  C   UNL     1     -24.640   3.449  10.324  1.00  0.00    +0.004 A 
ATOM     20  C   UNL     1     -26.601   2.390   9.374  1.00  0.00    +0.004 A 
ATOM     21  C   UNL     1     -25.389   2.300  10.063  1.00  0.00    +0.000 A 
ENDBRANCH  15  16
ENDBRANCH  13  15
ENDBRANCH  10  13
TORSDOF 4
ENDMDL
MODEL 4
REMARK VINA RESULT:    -9.135      3.911      6.729
REMARK INTER + INTRA:         -11.622
REMARK INTER:                 -10.748
REMARK INTRA:                  -0.874
REMARK UNBOUND:                -0.617
REMARK SMILES O=C(Oc1ccccc1)c1ccc2ccccc2c1O
REMARK SMILES IDX 19 1 18 2 17 3 16 4 15 5 14 6 13 7 12 8 11 9 10 10 20 11
REMARK SMILES IDX 2 13 1 14 3 15 4 16 5 17 9 18 6 19 8 20 7 21
REMARK H PARENT 20 12
ROOT
ATOM      1  C   UNL     1     -33.144   5.522   8.691  1.00  0.00    +0.137 A 
ATOM      2  C   UNL     1     -32.848   6.218   7.490  1.00  0.00    +0.024 A 
ATOM      3  C   UNL     1     -31.910   7.272   7.394  1.00  0.00    +0.012 A 
ATOM      4  C   UNL     1     -31.667   7.928   6.185  1.00  0.00    +0.001 A 
ATOM      5  C   UNL     1     -32.348   7.542   5.038  1.00  0.00    +0.001 A 
ATOM      6  C   UNL     1     -33.263   6.492   5.097  1.00  0.00    +0.009 A 
ATOM      7  C   UNL     1     -33.517   5.820   6.304  1.00  0.00    -0.015 A 
ATOM      8  C   UNL     1     -34.420   4.746   6.332  1.00  0.00    +0.010 A 
ATOM      9  C   UNL     1     -34.677   4.059   7.518  1.00  0.00    +0.020 A 
ATOM     10  C   UNL     1     -34.051   4.454   8.703  1.00  0.00    +0.102 A 
ENDROOT
BRANCH   1  11
ATOM     11  O   UNL     1     -32.522   5.862   9.868  1.00  0.00    -0.506 OA
ATOM     12  H   UNL     1     -31.972   6.647   9.711  1.00  0.00    +0.293 HD
ENDBRANCH   1  11
BRANCH  10  13
ATOM     13  C   UNL     1     -34.389   3.696   9.927  1.00  0.00    +0.347 C 
ATOM     14  O   UNL     1     -34.291   2.480   9.999  1.00  0.00    -0.246 OA
BRANCH  13  15
ATOM     15  O   UNL     1     -34.917   4.566  10.861  1.00  0.00    -0.423 OA
BRANCH  15  16
ATOM     16  C   UNL     1     -36.272   4.836  10.664  1.00  0.00    +0.131 A 
ATOM     17  C   UNL     1     -36.679   6.104  10.249  1.00  0.00    +0.047 A 
ATOM     18  C   UNL     1     -37.185   3.793  10.805  1.00  0.00    +0.047 A 
ATOM     19  C   UNL     1     -38.031   6.339  10.005  1.00  0.00    +0.004 A 
ATOM     20  C   UNL     1     -38.536   4.035  10.558  1.00  0.00    +0.004 A 
ATOM     21  C   UNL     1     -38.958   5.307  10.162  1.00  0.00    +0.000 A 
ENDBRANCH  15  16
ENDBRANCH  13  15
ENDBRANCH  10  13
TORSDOF 4
ENDMDL
MODEL 5
REMARK VINA RESULT:    -8.410      2.136      3.240
REMARK INTER + INTRA:         -10.748
REMARK INTER:                 -10.433
REMARK INTRA:                  -0.315
REMARK UNBOUND:                -0.617
REMARK SMILES O=C(Oc1ccccc1)c1ccc2ccccc2c1O
REMARK SMILES IDX 19 1 18 2 17 3 16 4 15 5 14 6 13 7 12 8 11 9 10 10 20 11
REMARK SMILES IDX 2 13 1 14 3 15 4 16 5 17 9 18 6 19 8 20 7 21
REMARK H PARENT 20 12
ROOT
ATOM      1  C   UNL     1     -29.643   8.335   7.383  1.00  0.00    +0.137 A 
ATOM      2  C   UNL     1     -29.385   9.633   6.872  1.00  0.00    +0.024 A 
ATOM      3  C   UNL     1     -28.102  10.099   6.499  1.00  0.00    +0.012 A 
ATOM      4  C   UNL     1     -27.908  11.394   6.011  1.00  0.00    +0.001 A 
ATOM      5  C   UNL     1     -28.990  12.252   5.873  1.00  0.00    +0.001 A 
ATOM      6  C   UNL     1     -30.268  11.815   6.211  1.00  0.00    +0.009 A 
ATOM      7  C   UNL     1     -30.483  10.516   6.701  1.00  0.00    -0.015 A 
ATOM      8  C   UNL     1     -31.784  10.088   7.007  1.00  0.00    +0.010 A 
ATOM      9  C   UNL     1     -32.019   8.799   7.484  1.00  0.00    +0.020 A 
ATOM     10  C   UNL     1     -30.948   7.924   7.687  1.00  0.00    +0.102 A 
ENDROOT
BRANCH   1  11
ATOM     11  O   UNL     1     -28.619   7.438   7.563  1.00  0.00    -0.506 OA
ATOM     12  H   UNL     1     -28.184   7.633   8.409  1.00  0.00    +0.293 HD
ENDBRANCH   1  11
BRANCH  10  13
ATOM     13  C   UNL     1     -31.268   6.581   8.218  1.00  0.00    +0.347 C 
ATOM     14  O   UNL     1     -30.635   6.061   9.125  1.00  0.00    -0.246 OA
BRANCH  13  15
ATOM     15  O   UNL     1     -32.273   6.025   7.450  1.00  0.00    -0.423 OA
BRANCH  15  16
ATOM     16  C   UNL     1     -33.414   5.696   8.184  1.00  0.00    +0.131 A 
ATOM     17  C   UNL     1     -34.663   6.169   7.782  1.00  0.00    +0.047 A 
ATOM     18  C   UNL     1     -33.283   4.822   9.261  1.00  0.00    +0.047 A 
ATOM     19  C   UNL     1     -35.797   5.786   8.497  1.00  0.00    +0.004 A 
ATOM     20  C   UNL     1     -34.421   4.442   9.970  1.00  0.00    +0.004 A 
ATOM     21  C   UNL     1     -35.676   4.925   9.590  1.00  0.00    +0.000 A 
ENDBRANCH  15  16
ENDBRANCH  13  15
ENDBRANCH  10  13
TORSDOF 4
ENDMDL
MODEL 6
REMARK VINA RESULT:    -8.292      5.633      8.340
REMARK INTER + INTRA:         -10.606
REMARK INTER:                  -9.947
REMARK INTRA:                  -0.659
REMARK UNBOUND:                -0.617
REMARK SMILES O=C(Oc1ccccc1)c1ccc2ccccc2c1O
REMARK SMILES IDX 19 1 18 2 17 3 16 4 15 5 14 6 13 7 12 8 11 9 10 10 20 11
REMARK SMILES IDX 2 13 1 14 3 15 4 16 5 17 9 18 6 19 8 20 7 21
REMARK H PARENT 20 12
ROOT
ATOM      1  C   UNL     1     -25.260   4.955   9.443  1.00  0.00    +0.137 A 
ATOM      2  C   UNL     1     -25.768   3.873  10.207  1.00  0.00    +0.024 A 
ATOM      3  C   UNL     1     -25.053   3.229  11.245  1.00  0.00    +0.012 A 
ATOM      4  C   UNL     1     -25.602   2.161  11.958  1.00  0.00    +0.001 A 
ATOM      5  C   UNL     1     -26.882   1.714  11.660  1.00  0.00    +0.001 A 
ATOM      6  C   UNL     1     -27.619   2.341  10.658  1.00  0.00    +0.009 A 
ATOM      7  C   UNL     1     -27.083   3.418   9.933  1.00  0.00    -0.015 A 
ATOM      8  C   UNL     1     -27.856   4.054   8.948  1.00  0.00    +0.010 A 
ATOM      9  C   UNL     1     -27.347   5.132   8.226  1.00  0.00    +0.020 A 
ATOM     10  C   UNL     1     -26.043   5.576   8.460  1.00  0.00    +0.102 A 
ENDROOT
BRANCH   1  11
ATOM     11  O   UNL     1     -23.994   5.438   9.669  1.00  0.00    -0.506 OA
ATOM     12  H   UNL     1     -23.454   4.725  10.046  1.00  0.00    +0.293 HD
ENDBRANCH   1  11
BRANCH  10  13
ATOM     13  C   UNL     1     -25.560   6.709   7.641  1.00  0.00    +0.347 C 
ATOM     14  O   UNL     1     -24.603   7.397   7.965  1.00  0.00    -0.246 OA
BRANCH  13  15
ATOM     15  O   UNL     1     -26.424   6.893   6.579  1.00  0.00    -0.423 OA
BRANCH  15  16
ATOM     16  C   UNL     1     -26.865   8.210   6.444  1.00  0.00    +0.131 A 
ATOM     17  C   UNL     1     -26.429   8.987   5.371  1.00  0.00    +0.047 A 
ATOM     18  C   UNL     1     -27.808   8.692   7.350  1.00  0.00    +0.047 A 
ATOM     19  C   UNL     1     -26.922  10.282   5.224  1.00  0.00    +0.004 A 
ATOM     20  C   UNL     1     -28.298   9.988   7.197  1.00  0.00    +0.004 A 
ATOM     21  C   UNL     1     -27.853  10.783   6.136  1.00  0.00    +0.000 A 
ENDBRANCH  15  16
ENDBRANCH  13  15
ENDBRANCH  10  13
TORSDOF 4
ENDMDL
MODEL 7
REMARK VINA RESULT:    -8.188      4.526      8.555
REMARK INTER + INTRA:         -10.480
REMARK INTER:                 -10.041
REMARK INTRA:                  -0.440
REMARK UNBOUND:                -0.617
REMARK SMILES O=C(Oc1ccccc1)c1ccc2ccccc2c1O
REMARK SMILES IDX 19 1 18 2 17 3 16 4 15 5 14 6 13 7 12 8 11 9 10 10 20 11
REMARK SMILES IDX 2 13 1 14 3 15 4 16 5 17 9 18 6 19 8 20 7 21
REMARK H PARENT 20 12
ROOT
ATOM      1  C   UNL     1     -31.106   2.807   9.580  1.00  0.00    +0.137 A 
ATOM      2  C   UNL     1     -31.376   1.481  10.007  1.00  0.00    +0.024 A 
ATOM      3  C   UNL     1     -30.392   0.472  10.131  1.00  0.00    +0.012 A 
ATOM      4  C   UNL     1     -30.719  -0.821  10.547  1.00  0.00    +0.001 A 
ATOM      5  C   UNL     1     -32.034  -1.136  10.860  1.00  0.00    +0.001 A 
ATOM      6  C   UNL     1     -33.021  -0.158  10.769  1.00  0.00    +0.009 A 
ATOM      7  C   UNL     1     -32.710   1.147  10.354  1.00  0.00    -0.015 A 
ATOM      8  C   UNL     1     -33.716   2.125  10.299  1.00  0.00    +0.010 A 
ATOM      9  C   UNL     1     -33.425   3.429   9.901  1.00  0.00    +0.020 A 
ATOM     10  C   UNL     1     -32.123   3.770   9.526  1.00  0.00    +0.102 A 
ENDROOT
BRANCH   1  11
ATOM     11  O   UNL     1     -29.831   3.186   9.236  1.00  0.00    -0.506 OA
ATOM     12  H   UNL     1     -29.845   4.125   8.989  1.00  0.00    +0.293 HD
ENDBRANCH   1  11
BRANCH  10  13
ATOM     13  C   UNL     1     -31.891   5.165   9.092  1.00  0.00    +0.347 C 
ATOM     14  O   UNL     1     -30.799   5.708   9.171  1.00  0.00    -0.246 OA
BRANCH  13  15
ATOM     15  O   UNL     1     -33.099   5.726   8.725  1.00  0.00    -0.423 OA
BRANCH  15  16
ATOM     16  C   UNL     1     -33.118   6.190   7.409  1.00  0.00    +0.131 A 
ATOM     17  C   UNL     1     -32.268   7.226   7.022  1.00  0.00    +0.047 A 
ATOM     18  C   UNL     1     -33.934   5.540   6.485  1.00  0.00    +0.047 A 
ATOM     19  C   UNL     1     -32.262   7.640   5.691  1.00  0.00    +0.004 A 
ATOM     20  C   UNL     1     -33.922   5.958   5.156  1.00  0.00    +0.004 A 
ATOM     21  C   UNL     1     -33.090   7.008   4.760  1.00  0.00    +0.000 A 
ENDBRANCH  15  16
ENDBRANCH  13  15
ENDBRANCH  10  13
TORSDOF 4
ENDMDL
MODEL 8
REMARK VINA RESULT:    -7.862      1.889      7.057
REMARK INTER + INTRA:         -10.088
REMARK INTER:                  -9.638
REMARK INTRA:                  -0.450
REMARK UNBOUND:                -0.617
REMARK SMILES O=C(Oc1ccccc1)c1ccc2ccccc2c1O
REMARK SMILES IDX 19 1 18 2 17 3 16 4 15 5 14 6 13 7 12 8 11 9 10 10 20 11
REMARK SMILES IDX 2 13 1 14 3 15 4 16 5 17 9 18 6 19 8 20 7 21
REMARK H PARENT 20 12
ROOT
ATOM      1  C   UNL     1     -30.715   6.890   8.073  1.00  0.00    +0.137 A 
ATOM      2  C   UNL     1     -31.727   5.929   8.331  1.00  0.00    +0.024 A 
ATOM      3  C   UNL     1     -31.539   4.770   9.121  1.00  0.00    +0.012 A 
ATOM      4  C   UNL     1     -32.571   3.853   9.332  1.00  0.00    +0.001 A 
ATOM      5  C   UNL     1     -33.821   4.075   8.768  1.00  0.00    +0.001 A 
ATOM      6  C   UNL     1     -34.042   5.218   8.003  1.00  0.00    +0.009 A 
ATOM      7  C   UNL     1     -33.016   6.151   7.783  1.00  0.00    -0.015 A 
ATOM      8  C   UNL     1     -33.271   7.311   7.034  1.00  0.00    +0.010 A 
ATOM      9  C   UNL     1     -32.270   8.255   6.814  1.00  0.00    +0.020 A 
ATOM     10  C   UNL     1     -30.985   8.040   7.320  1.00  0.00    +0.102 A 
ENDROOT
BRANCH   1  11
ATOM     11  O   UNL     1     -29.450   6.727   8.583  1.00  0.00    -0.506 OA
ATOM     12  H   UNL     1     -28.958   6.123   8.003  1.00  0.00    +0.293 HD
ENDBRANCH   1  11
BRANCH  10  13
ATOM     13  C   UNL     1     -29.966   9.071   7.028  1.00  0.00    +0.347 C 
ATOM     14  O   UNL     1     -30.049  10.218   7.443  1.00  0.00    -0.246 OA
BRANCH  13  15
ATOM     15  O   UNL     1     -29.035   8.545   6.153  1.00  0.00    -0.423 OA
BRANCH  15  16
ATOM     16  C   UNL     1     -27.841   9.266   6.113  1.00  0.00    +0.131 A 
ATOM     17  C   UNL     1     -27.780  10.478   5.425  1.00  0.00    +0.047 A 
ATOM     18  C   UNL     1     -26.753   8.793   6.844  1.00  0.00    +0.047 A 
ATOM     19  C   UNL     1     -26.594  11.210   5.442  1.00  0.00    +0.004 A 
ATOM     20  C   UNL     1     -25.571   9.530   6.857  1.00  0.00    +0.004 A 
ATOM     21  C   UNL     1     -25.490  10.736   6.154  1.00  0.00    +0.000 A 
ENDBRANCH  15  16
ENDBRANCH  13  15
ENDBRANCH  10  13
TORSDOF 4
ENDMDL
MODEL 9
REMARK VINA RESULT:    -7.210      7.392     10.569
REMARK INTER + INTRA:          -9.302
REMARK INTER:                  -8.794
REMARK INTRA:                  -0.508
REMARK UNBOUND:                -0.617
REMARK SMILES O=C(Oc1ccccc1)c1ccc2ccccc2c1O
REMARK SMILES IDX 19 1 18 2 17 3 16 4 15 5 14 6 13 7 12 8 11 9 10 10 20 11
REMARK SMILES IDX 2 13 1 14 3 15 4 16 5 17 9 18 6 19 8 20 7 21
REMARK H PARENT 20 12
ROOT
ATOM      1  C   UNL     1     -31.847   2.215   9.900  1.00  0.00    +0.137 A 
ATOM      2  C   UNL     1     -32.988   3.048  10.024  1.00  0.00    +0.024 A 
ATOM      3  C   UNL     1     -33.001   4.429   9.718  1.00  0.00    +0.012 A 
ATOM      4  C   UNL     1     -34.155   5.202   9.870  1.00  0.00    +0.001 A 
ATOM      5  C   UNL     1     -35.328   4.613  10.321  1.00  0.00    +0.001 A 
ATOM      6  C   UNL     1     -35.353   3.251  10.610  1.00  0.00    +0.009 A 
ATOM      7  C   UNL     1     -34.203   2.459  10.461  1.00  0.00    -0.015 A 
ATOM      8  C   UNL     1     -34.259   1.082  10.729  1.00  0.00    +0.010 A 
ATOM      9  C   UNL     1     -33.132   0.276  10.576  1.00  0.00    +0.020 A 
ATOM     10  C   UNL     1     -31.919   0.843  10.176  1.00  0.00    +0.102 A 
ENDROOT
BRANCH   1  11
ATOM     11  O   UNL     1     -30.646   2.732   9.476  1.00  0.00    -0.506 OA
ATOM     12  H   UNL     1     -30.814   3.580   9.036  1.00  0.00    +0.293 HD
ENDBRANCH   1  11
BRANCH  10  13
ATOM     13  C   UNL     1     -30.759  -0.067  10.057  1.00  0.00    +0.347 C 
ATOM     14  O   UNL     1     -30.701  -0.959   9.223  1.00  0.00    -0.246 OA
BRANCH  13  15
ATOM     15  O   UNL     1     -29.875   0.199  11.085  1.00  0.00    -0.423 OA
BRANCH  15  16
ATOM     16  C   UNL     1     -28.630  -0.407  10.917  1.00  0.00    +0.131 A 
ATOM     17  C   UNL     1     -28.281  -1.514  11.691  1.00  0.00    +0.047 A 
ATOM     18  C   UNL     1     -27.792   0.062   9.907  1.00  0.00    +0.047 A 
ATOM     19  C   UNL     1     -27.055  -2.138  11.472  1.00  0.00    +0.004 A 
ATOM     20  C   UNL     1     -26.567  -0.568   9.692  1.00  0.00    +0.004 A 
ATOM     21  C   UNL     1     -26.198  -1.665  10.475  1.00  0.00    +0.000 A 
ENDBRANCH  15  16
ENDBRANCH  13  15
ENDBRANCH  10  13
TORSDOF 4
ENDMDL
