REMARK SMILES NC(=O)c1cc2ccccc2c2ccccc12
REMARK SMILES IDX 1 1 2 2 3 3 4 6 17 7 5 8 16 9 12 10 6 11 15 12 13 13 11 14
REMARK SMILES IDX 7 15 14 16 10 17 8 18 9 19
REMARK H PARENT 1 4 1 5
ROOT
ATOM      1  N   UNL     1      -3.231  -1.964   0.860  1.00  0.00    -0.366 N 
ATOM      2  C   UNL     1      -2.894  -0.933   0.025  1.00  0.00    +0.249 C 
ATOM      3  O   UNL     1      -3.733  -0.363  -0.656  1.00  0.00    -0.270 OA
ATOM      4  H   UNL     1      -2.600  -2.306   1.571  1.00  0.00    +0.159 HD
ATOM      5  H   UNL     1      -4.219  -2.159   0.964  1.00  0.00    +0.159 HD
ENDROOT
BRANCH   2   6
ATOM      6  C   UNL     1      -1.456  -0.558   0.015  1.00  0.00    +0.048 A 
ATOM      7  C   UNL     1      -1.026   0.773   0.216  1.00  0.00    -0.005 A 
ATOM      8  C   UNL     1      -0.541  -1.592  -0.215  1.00  0.00    +0.023 A 
ATOM      9  C   UNL     1      -1.928   1.840   0.457  1.00  0.00    +0.009 A 
ATOM     10  C   UNL     1       0.371   1.046   0.193  1.00  0.00    -0.010 A 
ATOM     11  C   UNL     1       0.829  -1.342  -0.243  1.00  0.00    -0.017 A 
ATOM     12  C   UNL     1      -1.493   3.147   0.664  1.00  0.00    +0.001 A 
ATOM     13  C   UNL     1       0.772   2.391   0.408  1.00  0.00    +0.009 A 
ATOM     14  C   UNL     1       1.311  -0.026  -0.039  1.00  0.00    -0.010 A 
ATOM     15  C   UNL     1       1.716  -2.408  -0.478  1.00  0.00    +0.009 A 
ATOM     16  C   UNL     1      -0.140   3.423   0.638  1.00  0.00    +0.001 A 
ATOM     17  C   UNL     1       2.721   0.139  -0.082  1.00  0.00    +0.009 A 
ATOM     18  C   UNL     1       3.092  -2.203  -0.513  1.00  0.00    +0.001 A 
ATOM     19  C   UNL     1       3.595  -0.927  -0.314  1.00  0.00    +0.001 A 
ENDBRANCH   2   6
TORSDOF 1
