MODEL 1
REMARK VINA RESULT:    -9.698      0.000      0.000
REMARK INTER + INTRA:          -9.981
REMARK INTER:                  -9.981
REMARK INTRA:                   0.000
REMARK UNBOUND:                 0.000
REMARK SMILES Nc1cc2ccccc2c2ccccc12
REMARK SMILES IDX 1 1 2 4 15 5 3 6 14 7 10 8 4 9 13 10 11 11 9 12 5 13 12 14
REMARK SMILES IDX 8 15 6 16 7 17
REMARK H PARENT 1 2 1 3
ROOT
ATOM      1  N   UNL     1     -25.770  11.480   4.699  1.00  0.00    -0.398 N 
ATOM      2  H   UNL     1     -26.382  11.934   4.023  1.00  0.00    +0.156 HD
ATOM      3  H   UNL     1     -24.974  11.075   4.218  1.00  0.00    +0.156 HD
ENDROOT
BRANCH   1   4
ATOM      4  C   UNL     1     -26.503  10.520   5.440  1.00  0.00    +0.040 A 
ATOM      5  C   UNL     1     -27.787  10.778   5.981  1.00  0.00    +0.005 A 
ATOM      6  C   UNL     1     -25.809   9.368   5.815  1.00  0.00    +0.034 A 
ATOM      7  C   UNL     1     -28.486  11.981   5.713  1.00  0.00    +0.011 A 
ATOM      8  C   UNL     1     -28.398   9.801   6.819  1.00  0.00    -0.008 A 
ATOM      9  C   UNL     1     -26.386   8.394   6.630  1.00  0.00    -0.016 A 
ATOM     10  C   UNL     1     -29.758  12.230   6.225  1.00  0.00    +0.001 A 
ATOM     11  C   UNL     1     -29.696  10.091   7.315  1.00  0.00    +0.009 A 
ATOM     12  C   UNL     1     -27.692   8.586   7.139  1.00  0.00    -0.010 A 
ATOM     13  C   UNL     1     -25.656   7.231   6.938  1.00  0.00    +0.009 A 
ATOM     14  C   UNL     1     -30.366  11.281   7.024  1.00  0.00    +0.001 A 
ATOM     15  C   UNL     1     -28.209   7.544   7.953  1.00  0.00    +0.009 A 
ATOM     16  C   UNL     1     -26.198   6.233   7.742  1.00  0.00    +0.001 A 
ATOM     17  C   UNL     1     -27.477   6.388   8.250  1.00  0.00    +0.001 A 
ENDBRANCH   1   4
TORSDOF 1
ENDMDL
MODEL 2
REMARK VINA RESULT:    -9.393      1.776      2.913
REMARK INTER + INTRA:          -9.667
REMARK INTER:                  -9.667
REMARK INTRA:                   0.000
REMARK UNBOUND:                 0.000
REMARK SMILES Nc1cc2ccccc2c2ccccc12
REMARK SMILES IDX 1 1 2 4 15 5 3 6 14 7 10 8 4 9 13 10 11 11 9 12 5 13 12 14
REMARK SMILES IDX 8 15 6 16 7 17
REMARK H PARENT 1 2 1 3
ROOT
ATOM      1  N   UNL     1     -30.762   9.646   7.336  1.00  0.00    -0.398 N 
ATOM      2  H   UNL     1     -31.235   9.072   6.640  1.00  0.00    +0.156 HD
ATOM      3  H   UNL     1     -31.131  10.590   7.305  1.00  0.00    +0.156 HD
ENDROOT
BRANCH   1   4
ATOM      4  C   UNL     1     -29.362   9.604   7.121  1.00  0.00    +0.040 A 
ATOM      5  C   UNL     1     -28.655  10.623   6.437  1.00  0.00    +0.005 A 
ATOM      6  C   UNL     1     -28.728   8.395   7.416  1.00  0.00    +0.034 A 
ATOM      7  C   UNL     1     -29.282  11.825   6.024  1.00  0.00    +0.011 A 
ATOM      8  C   UNL     1     -27.270  10.441   6.156  1.00  0.00    -0.008 A 
ATOM      9  C   UNL     1     -27.373   8.192   7.155  1.00  0.00    -0.016 A 
ATOM     10  C   UNL     1     -28.586  12.840   5.371  1.00  0.00    +0.001 A 
ATOM     11  C   UNL     1     -26.596  11.501   5.494  1.00  0.00    +0.009 A 
ATOM     12  C   UNL     1     -26.617   9.211   6.530  1.00  0.00    -0.010 A 
ATOM     13  C   UNL     1     -26.777   6.970   7.516  1.00  0.00    +0.009 A 
ATOM     14  C   UNL     1     -27.239  12.679   5.108  1.00  0.00    +0.001 A 
ATOM     15  C   UNL     1     -25.243   8.928   6.308  1.00  0.00    +0.009 A 
ATOM     16  C   UNL     1     -25.427   6.730   7.278  1.00  0.00    +0.001 A 
ATOM     17  C   UNL     1     -24.657   7.712   6.675  1.00  0.00    +0.001 A 
ENDBRANCH   1   4
TORSDOF 1
ENDMDL
MODEL 3
REMARK VINA RESULT:    -9.335      0.844      4.240
REMARK INTER + INTRA:          -9.608
REMARK INTER:                  -9.608
REMARK INTRA:                   0.000
REMARK UNBOUND:                 0.000
REMARK SMILES Nc1cc2ccccc2c2ccccc12
REMARK SMILES IDX 1 1 2 4 15 5 3 6 14 7 10 8 4 9 13 10 11 11 9 12 5 13 12 14
REMARK SMILES IDX 8 15 6 16 7 17
REMARK H PARENT 1 2 1 3
ROOT
ATOM      1  N   UNL     1     -25.391  11.488   5.066  1.00  0.00    -0.398 N 
ATOM      2  H   UNL     1     -25.590  12.465   4.856  1.00  0.00    +0.156 HD
ATOM      3  H   UNL     1     -25.160  10.997   4.209  1.00  0.00    +0.156 HD
ENDROOT
BRANCH   1   4
ATOM      4  C   UNL     1     -26.492  10.909   5.744  1.00  0.00    +0.040 A 
ATOM      5  C   UNL     1     -26.474   9.591   6.262  1.00  0.00    +0.005 A 
ATOM      6  C   UNL     1     -27.694  11.617   5.687  1.00  0.00    +0.034 A 
ATOM      7  C   UNL     1     -25.301   8.795   6.246  1.00  0.00    +0.011 A 
ATOM      8  C   UNL     1     -27.666   9.044   6.818  1.00  0.00    -0.008 A 
ATOM      9  C   UNL     1     -28.875  11.108   6.228  1.00  0.00    -0.016 A 
ATOM     10  C   UNL     1     -25.272   7.505   6.773  1.00  0.00    +0.001 A 
ATOM     11  C   UNL     1     -27.593   7.730   7.350  1.00  0.00    +0.009 A 
ATOM     12  C   UNL     1     -28.882   9.819   6.811  1.00  0.00    -0.010 A 
ATOM     13  C   UNL     1     -30.046  11.885   6.183  1.00  0.00    +0.009 A 
ATOM     14  C   UNL     1     -26.420   6.973   7.330  1.00  0.00    +0.001 A 
ATOM     15  C   UNL     1     -30.122   9.378   7.346  1.00  0.00    +0.009 A 
ATOM     16  C   UNL     1     -31.243  11.416   6.716  1.00  0.00    +0.001 A 
ATOM     17  C   UNL     1     -31.280  10.160   7.301  1.00  0.00    +0.001 A 
ENDBRANCH   1   4
TORSDOF 1
ENDMDL
MODEL 4
REMARK VINA RESULT:    -9.306      1.902      5.224
REMARK INTER + INTRA:          -9.578
REMARK INTER:                  -9.578
REMARK INTRA:                   0.000
REMARK UNBOUND:                 0.000
REMARK SMILES Nc1cc2ccccc2c2ccccc12
REMARK SMILES IDX 1 1 2 4 15 5 3 6 14 7 10 8 4 9 13 10 11 11 9 12 5 13 12 14
REMARK SMILES IDX 8 15 6 16 7 17
REMARK H PARENT 1 2 1 3
ROOT
ATOM      1  N   UNL     1     -29.588   7.381   8.060  1.00  0.00    -0.398 N 
ATOM      2  H   UNL     1     -30.439   7.169   7.542  1.00  0.00    +0.156 HD
ATOM      3  H   UNL     1     -29.829   7.716   8.986  1.00  0.00    +0.156 HD
ENDROOT
BRANCH   1   4
ATOM      4  C   UNL     1     -28.804   8.311   7.333  1.00  0.00    +0.040 A 
ATOM      5  C   UNL     1     -27.417   8.137   7.101  1.00  0.00    +0.005 A 
ATOM      6  C   UNL     1     -29.410   9.534   7.040  1.00  0.00    +0.034 A 
ATOM      7  C   UNL     1     -26.736   6.952   7.477  1.00  0.00    +0.011 A 
ATOM      8  C   UNL     1     -26.681   9.180   6.469  1.00  0.00    -0.008 A 
ATOM      9  C   UNL     1     -28.714  10.570   6.418  1.00  0.00    -0.016 A 
ATOM     10  C   UNL     1     -25.377   6.768   7.231  1.00  0.00    +0.001 A 
ATOM     11  C   UNL     1     -25.300   8.950   6.232  1.00  0.00    +0.009 A 
ATOM     12  C   UNL     1     -27.342  10.411   6.112  1.00  0.00    -0.010 A 
ATOM     13  C   UNL     1     -29.388  11.764   6.104  1.00  0.00    +0.009 A 
ATOM     14  C   UNL     1     -24.658   7.768   6.604  1.00  0.00    +0.001 A 
ATOM     15  C   UNL     1     -26.709  11.509   5.472  1.00  0.00    +0.009 A 
ATOM     16  C   UNL     1     -28.731  12.819   5.478  1.00  0.00    +0.001 A 
ATOM     17  C   UNL     1     -27.389  12.691   5.159  1.00  0.00    +0.001 A 
ENDBRANCH   1   4
TORSDOF 1
ENDMDL
MODEL 5
REMARK VINA RESULT:    -8.988      1.316      2.085
REMARK INTER + INTRA:          -9.251
REMARK INTER:                  -9.251
REMARK INTRA:                   0.000
REMARK UNBOUND:                 0.000
REMARK SMILES Nc1cc2ccccc2c2ccccc12
REMARK SMILES IDX 1 1 2 4 15 5 3 6 14 7 10 8 4 9 13 10 11 11 9 12 5 13 12 14
REMARK SMILES IDX 8 15 6 16 7 17
REMARK H PARENT 1 2 1 3
ROOT
ATOM      1  N   UNL     1     -28.394  13.355   5.063  1.00  0.00    -0.398 N 
ATOM      2  H   UNL     1     -28.832  13.364   4.144  1.00  0.00    +0.156 HD
ATOM      3  H   UNL     1     -27.498  13.830   5.017  1.00  0.00    +0.156 HD
ENDROOT
BRANCH   1   4
ATOM      4  C   UNL     1     -28.278  12.021   5.526  1.00  0.00    +0.040 A 
ATOM      5  C   UNL     1     -29.335  11.332   6.169  1.00  0.00    +0.005 A 
ATOM      6  C   UNL     1     -26.992  11.476   5.524  1.00  0.00    +0.034 A 
ATOM      7  C   UNL     1     -30.632  11.891   6.288  1.00  0.00    +0.011 A 
ATOM      8  C   UNL     1     -29.094  10.038   6.714  1.00  0.00    -0.008 A 
ATOM      9  C   UNL     1     -26.729  10.210   6.046  1.00  0.00    -0.016 A 
ATOM     10  C   UNL     1     -31.681  11.208   6.901  1.00  0.00    +0.001 A 
ATOM     11  C   UNL     1     -30.190   9.374   7.324  1.00  0.00    +0.009 A 
ATOM     12  C   UNL     1     -27.773   9.463   6.641  1.00  0.00    -0.010 A 
ATOM     13  C   UNL     1     -25.423   9.692   5.975  1.00  0.00    +0.009 A 
ATOM     14  C   UNL     1     -31.461   9.946   7.417  1.00  0.00    +0.001 A 
ATOM     15  C   UNL     1     -27.424   8.181   7.141  1.00  0.00    +0.009 A 
ATOM     16  C   UNL     1     -25.120   8.431   6.479  1.00  0.00    +0.001 A 
ATOM     17  C   UNL     1     -26.123   7.672   7.062  1.00  0.00    +0.001 A 
ENDBRANCH   1   4
TORSDOF 1
ENDMDL
MODEL 6
REMARK VINA RESULT:    -8.817      1.714      3.403
REMARK INTER + INTRA:          -9.075
REMARK INTER:                  -9.075
REMARK INTRA:                   0.000
REMARK UNBOUND:                 0.000
REMARK SMILES Nc1cc2ccccc2c2ccccc12
REMARK SMILES IDX 1 1 2 4 15 5 3 6 14 7 10 8 4 9 13 10 11 11 9 12 5 13 12 14
REMARK SMILES IDX 8 15 6 16 7 17
REMARK H PARENT 1 2 1 3
ROOT
ATOM      1  N   UNL     1     -25.805   8.691   6.461  1.00  0.00    -0.398 N 
ATOM      2  H   UNL     1     -25.723   7.801   5.972  1.00  0.00    +0.156 HD
ATOM      3  H   UNL     1     -25.441   8.596   7.402  1.00  0.00    +0.156 HD
ENDROOT
BRANCH   1   4
ATOM      4  C   UNL     1     -27.154   9.125   6.442  1.00  0.00    +0.040 A 
ATOM      5  C   UNL     1     -27.535  10.444   6.092  1.00  0.00    +0.005 A 
ATOM      6  C   UNL     1     -28.091   8.256   7.004  1.00  0.00    +0.034 A 
ATOM      7  C   UNL     1     -26.598  11.395   5.615  1.00  0.00    +0.011 A 
ATOM      8  C   UNL     1     -28.900  10.831   6.220  1.00  0.00    -0.008 A 
ATOM      9  C   UNL     1     -29.434   8.609   7.137  1.00  0.00    -0.016 A 
ATOM     10  C   UNL     1     -26.972  12.686   5.249  1.00  0.00    +0.001 A 
ATOM     11  C   UNL     1     -29.241  12.154   5.832  1.00  0.00    +0.009 A 
ATOM     12  C   UNL     1     -29.866   9.895   6.740  1.00  0.00    -0.010 A 
ATOM     13  C   UNL     1     -30.342   7.675   7.669  1.00  0.00    +0.009 A 
ATOM     14  C   UNL     1     -28.297  13.065   5.354  1.00  0.00    +0.001 A 
ATOM     15  C   UNL     1     -31.250  10.171   6.900  1.00  0.00    +0.009 A 
ATOM     16  C   UNL     1     -31.692   7.985   7.812  1.00  0.00    +0.001 A 
ATOM     17  C   UNL     1     -32.147   9.235   7.425  1.00  0.00    +0.001 A 
ENDBRANCH   1   4
TORSDOF 1
ENDMDL
MODEL 7
REMARK VINA RESULT:    -7.610      8.513      9.850
REMARK INTER + INTRA:          -7.833
REMARK INTER:                  -7.833
REMARK INTRA:                   0.000
REMARK UNBOUND:                 0.000
REMARK SMILES Nc1cc2ccccc2c2ccccc12
REMARK SMILES IDX 1 1 2 4 15 5 3 6 14 7 10 8 4 9 13 10 11 11 9 12 5 13 12 14
REMARK SMILES IDX 8 15 6 16 7 17
REMARK H PARENT 1 2 1 3
ROOT
ATOM      1  N   UNL     1     -35.134   6.981   7.692  1.00  0.00    -0.398 N 
ATOM      2  H   UNL     1     -35.603   7.740   8.184  1.00  0.00    +0.156 HD
ATOM      3  H   UNL     1     -35.580   6.833   6.793  1.00  0.00    +0.156 HD
ENDROOT
BRANCH   1   4
ATOM      4  C   UNL     1     -35.136   5.815   8.497  1.00  0.00    +0.040 A 
ATOM      5  C   UNL     1     -36.239   5.431   9.298  1.00  0.00    +0.005 A 
ATOM      6  C   UNL     1     -33.908   5.166   8.646  1.00  0.00    +0.034 A 
ATOM      7  C   UNL     1     -37.474   6.126   9.258  1.00  0.00    +0.011 A 
ATOM      8  C   UNL     1     -36.109   4.313  10.172  1.00  0.00    -0.008 A 
ATOM      9  C   UNL     1     -33.755   4.067   9.491  1.00  0.00    -0.016 A 
ATOM     10  C   UNL     1     -38.569   5.739  10.028  1.00  0.00    +0.001 A 
ATOM     11  C   UNL     1     -37.249   3.949  10.935  1.00  0.00    +0.009 A 
ATOM     12  C   UNL     1     -34.852   3.614  10.261  1.00  0.00    -0.010 A 
ATOM     13  C   UNL     1     -32.507   3.424   9.567  1.00  0.00    +0.009 A 
ATOM     14  C   UNL     1     -38.457   4.646  10.866  1.00  0.00    +0.001 A 
ATOM     15  C   UNL     1     -34.615   2.485  11.089  1.00  0.00    +0.009 A 
ATOM     16  C   UNL     1     -32.314   2.320  10.393  1.00  0.00    +0.001 A 
ATOM     17  C   UNL     1     -33.371   1.848  11.154  1.00  0.00    +0.001 A 
ENDBRANCH   1   4
TORSDOF 1
ENDMDL
MODEL 8
REMARK VINA RESULT:    -7.141      8.711     10.517
REMARK INTER + INTRA:          -7.350
REMARK INTER:                  -7.350
REMARK INTRA:                   0.000
REMARK UNBOUND:                 0.000
REMARK SMILES Nc1cc2ccccc2c2ccccc12
REMARK SMILES IDX 1 1 2 4 15 5 3 6 14 7 10 8 4 9 13 10 11 11 9 12 5 13 12 14
REMARK SMILES IDX 8 15 6 16 7 17
REMARK H PARENT 1 2 1 3
ROOT
ATOM      1  N   UNL     1     -26.143   4.362  11.774  1.00  0.00    -0.398 N 
ATOM      2  H   UNL     1     -26.761   4.733  11.054  1.00  0.00    +0.156 HD
ATOM      3  H   UNL     1     -25.206   4.726  11.638  1.00  0.00    +0.156 HD
ENDROOT
BRANCH   1   4
ATOM      4  C   UNL     1     -26.184   2.946  11.758  1.00  0.00    +0.040 A 
ATOM      5  C   UNL     1     -25.084   2.146  11.362  1.00  0.00    +0.005 A 
ATOM      6  C   UNL     1     -27.440   2.362  11.937  1.00  0.00    +0.034 A 
ATOM      7  C   UNL     1     -23.816   2.707  11.068  1.00  0.00    +0.011 A 
ATOM      8  C   UNL     1     -25.251   0.736  11.256  1.00  0.00    -0.008 A 
ATOM      9  C   UNL     1     -27.630   0.984  11.843  1.00  0.00    -0.016 A 
ATOM     10  C   UNL     1     -22.725   1.923  10.699  1.00  0.00    +0.001 A 
ATOM     11  C   UNL     1     -24.114  -0.028  10.882  1.00  0.00    +0.009 A 
ATOM     12  C   UNL     1     -26.541   0.144  11.511  1.00  0.00    -0.010 A 
ATOM     13  C   UNL     1     -28.909   0.446  12.078  1.00  0.00    +0.009 A 
ATOM     14  C   UNL     1     -22.873   0.552  10.609  1.00  0.00    +0.001 A 
ATOM     15  C   UNL     1     -26.817  -1.247  11.444  1.00  0.00    +0.009 A 
ATOM     16  C   UNL     1     -29.139  -0.924  12.000  1.00  0.00    +0.001 A 
ATOM     17  C   UNL     1     -28.091  -1.773  11.684  1.00  0.00    +0.001 A 
ENDBRANCH   1   4
TORSDOF 1
ENDMDL
MODEL 9
REMARK VINA RESULT:    -7.106      8.501     10.564
REMARK INTER + INTRA:          -7.313
REMARK INTER:                  -7.313
REMARK INTRA:                   0.000
REMARK UNBOUND:                 0.000
REMARK SMILES Nc1cc2ccccc2c2ccccc12
REMARK SMILES IDX 1 1 2 4 15 5 3 6 14 7 10 8 4 9 13 10 11 11 9 12 5 13 12 14
REMARK SMILES IDX 8 15 6 16 7 17
REMARK H PARENT 1 2 1 3
ROOT
ATOM      1  N   UNL     1     -33.358   5.873   7.439  1.00  0.00    -0.398 N 
ATOM      2  H   UNL     1     -33.303   5.209   6.668  1.00  0.00    +0.156 HD
ATOM      3  H   UNL     1     -32.427   6.055   7.798  1.00  0.00    +0.156 HD
ENDROOT
BRANCH   1   4
ATOM      4  C   UNL     1     -34.236   5.377   8.435  1.00  0.00    +0.040 A 
ATOM      5  C   UNL     1     -33.903   4.298   9.291  1.00  0.00    +0.005 A 
ATOM      6  C   UNL     1     -35.548   5.853   8.394  1.00  0.00    +0.034 A 
ATOM      7  C   UNL     1     -32.612   3.713   9.293  1.00  0.00    +0.011 A 
ATOM      8  C   UNL     1     -34.891   3.783  10.179  1.00  0.00    -0.008 A 
ATOM      9  C   UNL     1     -36.533   5.370   9.255  1.00  0.00    -0.016 A 
ATOM     10  C   UNL     1     -32.274   2.666  10.148  1.00  0.00    +0.001 A 
ATOM     11  C   UNL     1     -34.504   2.721  11.037  1.00  0.00    +0.009 A 
ATOM     12  C   UNL     1     -36.223   4.335  10.169  1.00  0.00    -0.010 A 
ATOM     13  C   UNL     1     -37.827   5.919   9.201  1.00  0.00    +0.009 A 
ATOM     14  C   UNL     1     -33.220   2.171  11.024  1.00  0.00    +0.001 A 
ATOM     15  C   UNL     1     -37.280   3.906  11.015  1.00  0.00    +0.009 A 
ATOM     16  C   UNL     1     -38.837   5.469  10.046  1.00  0.00    +0.001 A 
ATOM     17  C   UNL     1     -38.562   4.462  10.957  1.00  0.00    +0.001 A 
ENDBRANCH   1   4
TORSDOF 1
ENDMDL
