REMARK SMILES Nc1cc2ccccc2c2ccccc12
REMARK SMILES IDX 1 1 2 4 15 5 3 6 14 7 10 8 4 9 13 10 11 11 9 12 5 13 12 14
REMARK SMILES IDX 8 15 6 16 7 17
REMARK H PARENT 1 2 1 3
ROOT
ATOM      1  N   UNL     1      -2.185  -2.494   0.044  1.00  0.00    -0.398 N 
ATOM      2  H   UNL     1      -2.313  -2.763  -0.930  1.00  0.00    +0.156 HD
ATOM      3  H   UNL     1      -3.069  -2.178   0.428  1.00  0.00    +0.156 HD
ENDROOT
BRANCH   1   4
ATOM      4  C   UNL     1      -1.169  -1.511   0.140  1.00  0.00    +0.040 A 
ATOM      5  C   UNL     1      -1.423  -0.123   0.013  1.00  0.00    +0.005 A 
ATOM      6  C   UNL     1       0.146  -1.980   0.142  1.00  0.00    +0.034 A 
ATOM      7  C   UNL     1      -2.739   0.392  -0.098  1.00  0.00    +0.011 A 
ATOM      8  C   UNL     1      -0.327   0.787  -0.002  1.00  0.00    -0.008 A 
ATOM      9  C   UNL     1       1.237  -1.111   0.132  1.00  0.00    -0.016 A 
ATOM     10  C   UNL     1      -2.995   1.758  -0.201  1.00  0.00    +0.001 A 
ATOM     11  C   UNL     1      -0.631   2.170  -0.103  1.00  0.00    +0.009 A 
ATOM     12  C   UNL     1       1.023   0.286   0.070  1.00  0.00    -0.010 A 
ATOM     13  C   UNL     1       2.540  -1.639   0.182  1.00  0.00    +0.009 A 
ATOM     14  C   UNL     1      -1.939   2.649  -0.200  1.00  0.00    +0.001 A 
ATOM     15  C   UNL     1       2.186   1.101   0.072  1.00  0.00    +0.009 A 
ATOM     16  C   UNL     1       3.655  -0.806   0.180  1.00  0.00    +0.001 A 
ATOM     17  C   UNL     1       3.478   0.567   0.127  1.00  0.00    +0.001 A 
ENDBRANCH   1   4
TORSDOF 1
