REMARK SMILES Cc1nc(NNc2ccccc2)c2cnn(-c3ccccc3)c2n1
REMARK SMILES IDX 5 1 4 3 2 4 3 5 24 6 23 7 13 8 16 9 14 10 15 11 1 12 17 13
REMARK SMILES IDX 18 14 22 15 19 16 21 17 20 18 6 19 7 21 8 22 12 23 9 24
REMARK SMILES IDX 11 25 10 26
REMARK H PARENT 5 2 6 20
ROOT
ATOM      1  N   UNL     1       1.994  -0.216   0.464  1.00  0.00    -0.283 N 
ATOM      2  H   UNL     1       2.023  -0.281   1.478  1.00  0.00    +0.189 HD
ENDROOT
BRANCH   1   3
ATOM      3  C   UNL     1       0.690  -0.306  -0.058  1.00  0.00    +0.159 A 
ATOM      4  C   UNL     1      -0.729  -0.796  -1.852  1.00  0.00    +0.130 A 
ATOM      5  N   UNL     1       0.518  -0.703  -1.347  1.00  0.00    -0.214 NA
ATOM      6  N   UNL     1      -1.873  -0.518  -1.206  1.00  0.00    -0.213 NA
ATOM      7  C   UNL     1      -1.684  -0.124   0.070  1.00  0.00    +0.168 A 
ATOM      8  C   UNL     1      -0.451   0.000   0.689  1.00  0.00    +0.084 A 
ATOM      9  N   UNL     1      -2.642   0.237   1.019  1.00  0.00    -0.215 N 
ATOM     10  C   UNL     1      -0.745   0.441   1.987  1.00  0.00    +0.150 A 
ATOM     11  N   UNL     1      -2.050   0.583   2.207  1.00  0.00    -0.174 NA
ATOM     12  C   UNL     1      -0.845  -1.209  -3.288  1.00  0.00    +0.090 C 
BRANCH   9  13
ATOM     13  C   UNL     1      -4.066   0.284   0.903  1.00  0.00    +0.067 A 
ATOM     14  C   UNL     1      -4.830   0.685   2.013  1.00  0.00    +0.028 A 
ATOM     15  C   UNL     1      -4.728  -0.058  -0.283  1.00  0.00    +0.028 A 
ATOM     16  C   UNL     1      -6.224   0.742   1.935  1.00  0.00    +0.002 A 
ATOM     17  C   UNL     1      -6.124   0.000  -0.355  1.00  0.00    +0.002 A 
ATOM     18  C   UNL     1      -6.870   0.399   0.751  1.00  0.00    +0.000 A 
ENDBRANCH   9  13
ENDBRANCH   1   3
BRANCH   1  19
ATOM     19  N   UNL     1       3.039  -0.814  -0.192  1.00  0.00    -0.300 N 
ATOM     20  H   UNL     1       2.803  -1.073  -1.157  1.00  0.00    +0.188 HD
BRANCH  19  21
ATOM     21  C   UNL     1       4.368  -0.339  -0.102  1.00  0.00    +0.054 A 
ATOM     22  C   UNL     1       5.347  -0.899  -0.934  1.00  0.00    +0.027 A 
ATOM     23  C   UNL     1       4.773   0.585   0.869  1.00  0.00    +0.027 A 
ATOM     24  C   UNL     1       6.686  -0.510  -0.834  1.00  0.00    +0.002 A 
ATOM     25  C   UNL     1       6.111   0.978   0.972  1.00  0.00    +0.002 A 
ATOM     26  C   UNL     1       7.066   0.433   0.117  1.00  0.00    +0.000 A 
ENDBRANCH  19  21
ENDBRANCH   1  19
TORSDOF 4
