MODEL 1
REMARK VINA RESULT:   -10.478      0.000      0.000
REMARK INTER + INTRA:         -13.025
REMARK INTER:                 -12.928
REMARK INTRA:                  -0.097
REMARK UNBOUND:                -0.097
REMARK SMILES Cc1nc(NNc2ccccc2)c2cnn(-c3ccccc3)c2n1
REMARK SMILES IDX 5 1 4 3 2 4 3 5 24 6 23 7 13 8 16 9 14 10 15 11 1 12 17 13
REMARK SMILES IDX 18 14 22 15 19 16 21 17 20 18 6 19 7 21 8 22 12 23 9 24
REMARK SMILES IDX 11 25 10 26
REMARK H PARENT 5 2 6 20
ROOT
ATOM      1  N   UNL     1     -25.380   5.256   8.205  1.00  0.00    -0.283 N 
ATOM      2  H   UNL     1     -24.592   5.603   8.744  1.00  0.00    +0.189 HD
ENDROOT
BRANCH   1   3
ATOM      3  C   UNL     1     -26.345   6.245   7.937  1.00  0.00    +0.159 A 
ATOM      4  C   UNL     1     -28.564   6.975   8.058  1.00  0.00    +0.130 A 
ATOM      5  N   UNL     1     -27.635   6.030   8.307  1.00  0.00    -0.214 NA
ATOM      6  N   UNL     1     -28.357   8.154   7.448  1.00  0.00    -0.213 NA
ATOM      7  C   UNL     1     -27.073   8.350   7.086  1.00  0.00    +0.168 A 
ATOM      8  C   UNL     1     -26.041   7.450   7.298  1.00  0.00    +0.084 A 
ATOM      9  N   UNL     1     -26.511   9.452   6.440  1.00  0.00    -0.215 N 
ATOM     10  C   UNL     1     -24.908   8.070   6.753  1.00  0.00    +0.150 A 
ATOM     11  N   UNL     1     -25.166   9.271   6.241  1.00  0.00    -0.174 NA
ATOM     12  C   UNL     1     -29.972   6.660   8.464  1.00  0.00    +0.090 C 
BRANCH   9  13
ATOM     13  C   UNL     1     -27.131  10.661   5.995  1.00  0.00    +0.067 A 
ATOM     14  C   UNL     1     -28.469  10.913   6.346  1.00  0.00    +0.028 A 
ATOM     15  C   UNL     1     -26.450  11.605   5.216  1.00  0.00    +0.028 A 
ATOM     16  C   UNL     1     -29.107  12.084   5.928  1.00  0.00    +0.002 A 
ATOM     17  C   UNL     1     -27.094  12.775   4.799  1.00  0.00    +0.002 A 
ATOM     18  C   UNL     1     -28.419  13.013   5.154  1.00  0.00    +0.000 A 
ENDBRANCH   9  13
ENDBRANCH   1   3
BRANCH   1  19
ATOM     19  N   UNL     1     -25.773   3.975   8.499  1.00  0.00    -0.300 N 
ATOM     20  H   UNL     1     -25.189   3.268   8.039  1.00  0.00    +0.188 HD
BRANCH  19  21
ATOM     21  C   UNL     1     -26.132   3.569   9.805  1.00  0.00    +0.054 A 
ATOM     22  C   UNL     1     -27.291   2.800   9.982  1.00  0.00    +0.027 A 
ATOM     23  C   UNL     1     -25.445   4.004  10.945  1.00  0.00    +0.027 A 
ATOM     24  C   UNL     1     -27.723   2.432  11.260  1.00  0.00    +0.002 A 
ATOM     25  C   UNL     1     -25.873   3.638  12.225  1.00  0.00    +0.002 A 
ATOM     26  C   UNL     1     -27.010   2.848  12.381  1.00  0.00    +0.000 A 
ENDBRANCH  19  21
ENDBRANCH   1  19
TORSDOF 4
ENDMDL
MODEL 2
REMARK VINA RESULT:   -10.442      4.771      9.693
REMARK INTER + INTRA:         -12.980
REMARK INTER:                 -12.377
REMARK INTRA:                  -0.603
REMARK UNBOUND:                -0.097
REMARK SMILES Cc1nc(NNc2ccccc2)c2cnn(-c3ccccc3)c2n1
REMARK SMILES IDX 5 1 4 3 2 4 3 5 24 6 23 7 13 8 16 9 14 10 15 11 1 12 17 13
REMARK SMILES IDX 18 14 22 15 19 16 21 17 20 18 6 19 7 21 8 22 12 23 9 24
REMARK SMILES IDX 11 25 10 26
REMARK H PARENT 5 2 6 20
ROOT
ATOM      1  N   UNL     1     -33.625   7.793   7.114  1.00  0.00    -0.283 N 
ATOM      2  H   UNL     1     -34.170   7.925   6.266  1.00  0.00    +0.189 HD
ENDROOT
BRANCH   1   3
ATOM      3  C   UNL     1     -34.011   6.656   7.848  1.00  0.00    +0.159 A 
ATOM      4  C   UNL     1     -35.712   5.320   8.739  1.00  0.00    +0.130 A 
ATOM      5  N   UNL     1     -35.335   6.410   8.041  1.00  0.00    -0.214 NA
ATOM      6  N   UNL     1     -34.897   4.413   9.303  1.00  0.00    -0.213 NA
ATOM      7  C   UNL     1     -33.589   4.673   9.103  1.00  0.00    +0.168 A 
ATOM      8  C   UNL     1     -33.093   5.758   8.399  1.00  0.00    +0.084 A 
ATOM      9  N   UNL     1     -32.481   3.946   9.542  1.00  0.00    -0.215 N 
ATOM     10  C   UNL     1     -31.699   5.620   8.464  1.00  0.00    +0.150 A 
ATOM     11  N   UNL     1     -31.312   4.539   9.137  1.00  0.00    -0.174 NA
ATOM     12  C   UNL     1     -37.184   5.126   8.942  1.00  0.00    +0.090 C 
BRANCH   9  13
ATOM     13  C   UNL     1     -32.429   2.741  10.309  1.00  0.00    +0.067 A 
ATOM     14  C   UNL     1     -31.551   1.716   9.914  1.00  0.00    +0.028 A 
ATOM     15  C   UNL     1     -33.226   2.546  11.444  1.00  0.00    +0.028 A 
ATOM     16  C   UNL     1     -31.475   0.524  10.640  1.00  0.00    +0.002 A 
ATOM     17  C   UNL     1     -33.145   1.350  12.167  1.00  0.00    +0.002 A 
ATOM     18  C   UNL     1     -32.272   0.343  11.766  1.00  0.00    +0.000 A 
ENDBRANCH   9  13
ENDBRANCH   1   3
BRANCH   1  19
ATOM     19  N   UNL     1     -33.271   8.945   7.768  1.00  0.00    -0.300 N 
ATOM     20  H   UNL     1     -33.576   8.952   8.749  1.00  0.00    +0.188 HD
BRANCH  19  21
ATOM     21  C   UNL     1     -31.997   9.542   7.626  1.00  0.00    +0.054 A 
ATOM     22  C   UNL     1     -31.844  10.899   7.943  1.00  0.00    +0.027 A 
ATOM     23  C   UNL     1     -30.907   8.865   7.067  1.00  0.00    +0.027 A 
ATOM     24  C   UNL     1     -30.621  11.549   7.755  1.00  0.00    +0.002 A 
ATOM     25  C   UNL     1     -29.681   9.511   6.877  1.00  0.00    +0.002 A 
ATOM     26  C   UNL     1     -29.538  10.852   7.226  1.00  0.00    +0.000 A 
ENDBRANCH  19  21
ENDBRANCH   1  19
TORSDOF 4
ENDMDL
MODEL 3
REMARK VINA RESULT:    -9.810      5.881      8.840
REMARK INTER + INTRA:         -12.200
REMARK INTER:                 -11.489
REMARK INTRA:                  -0.712
REMARK UNBOUND:                -0.097
REMARK SMILES Cc1nc(NNc2ccccc2)c2cnn(-c3ccccc3)c2n1
REMARK SMILES IDX 5 1 4 3 2 4 3 5 24 6 23 7 13 8 16 9 14 10 15 11 1 12 17 13
REMARK SMILES IDX 18 14 22 15 19 16 21 17 20 18 6 19 7 21 8 22 12 23 9 24
REMARK SMILES IDX 11 25 10 26
REMARK H PARENT 5 2 6 20
ROOT
ATOM      1  N   UNL     1     -30.931   1.475   9.675  1.00  0.00    -0.283 N 
ATOM      2  H   UNL     1     -30.883   0.932   8.817  1.00  0.00    +0.189 HD
ENDROOT
BRANCH   1   3
ATOM      3  C   UNL     1     -31.774   2.597   9.572  1.00  0.00    +0.159 A 
ATOM      4  C   UNL     1     -32.044   4.874   9.108  1.00  0.00    +0.130 A 
ATOM      5  N   UNL     1     -31.241   3.796   9.213  1.00  0.00    -0.214 NA
ATOM      6  N   UNL     1     -33.366   4.908   9.338  1.00  0.00    -0.213 NA
ATOM      7  C   UNL     1     -33.878   3.713   9.695  1.00  0.00    +0.168 A 
ATOM      8  C   UNL     1     -33.147   2.543   9.828  1.00  0.00    +0.084 A 
ATOM      9  N   UNL     1     -35.201   3.390  10.004  1.00  0.00    -0.215 N 
ATOM     10  C   UNL     1     -34.085   1.578  10.220  1.00  0.00    +0.150 A 
ATOM     11  N   UNL     1     -35.320   2.062  10.325  1.00  0.00    -0.174 NA
ATOM     12  C   UNL     1     -31.387   6.169   8.738  1.00  0.00    +0.090 C 
BRANCH   9  13
ATOM     13  C   UNL     1     -36.361   4.225  10.022  1.00  0.00    +0.067 A 
ATOM     14  C   UNL     1     -36.460   5.238  10.992  1.00  0.00    +0.028 A 
ATOM     15  C   UNL     1     -37.406   4.067   9.103  1.00  0.00    +0.028 A 
ATOM     16  C   UNL     1     -37.580   6.072  11.038  1.00  0.00    +0.002 A 
ATOM     17  C   UNL     1     -38.526   4.904   9.156  1.00  0.00    +0.002 A 
ATOM     18  C   UNL     1     -38.612   5.904  10.121  1.00  0.00    +0.000 A 
ENDBRANCH   9  13
ENDBRANCH   1   3
BRANCH   1  19
ATOM     19  N   UNL     1     -29.759   1.559  10.383  1.00  0.00    -0.300 N 
ATOM     20  H   UNL     1     -29.195   2.374  10.117  1.00  0.00    +0.188 HD
BRANCH  19  21
ATOM     21  C   UNL     1     -29.691   1.323  11.775  1.00  0.00    +0.054 A 
ATOM     22  C   UNL     1     -30.809   0.788  12.429  1.00  0.00    +0.027 A 
ATOM     23  C   UNL     1     -28.593   1.714  12.552  1.00  0.00    +0.027 A 
ATOM     24  C   UNL     1     -30.813   0.601  13.815  1.00  0.00    +0.002 A 
ATOM     25  C   UNL     1     -28.592   1.528  13.938  1.00  0.00    +0.002 A 
ATOM     26  C   UNL     1     -29.701   0.967  14.568  1.00  0.00    +0.000 A 
ENDBRANCH  19  21
ENDBRANCH   1  19
TORSDOF 4
ENDMDL
MODEL 4
REMARK VINA RESULT:    -9.580      4.663      9.350
REMARK INTER + INTRA:         -11.917
REMARK INTER:                 -11.329
REMARK INTRA:                  -0.588
REMARK UNBOUND:                -0.097
REMARK SMILES Cc1nc(NNc2ccccc2)c2cnn(-c3ccccc3)c2n1
REMARK SMILES IDX 5 1 4 3 2 4 3 5 24 6 23 7 13 8 16 9 14 10 15 11 1 12 17 13
REMARK SMILES IDX 18 14 22 15 19 16 21 17 20 18 6 19 7 21 8 22 12 23 9 24
REMARK SMILES IDX 11 25 10 26
REMARK H PARENT 5 2 6 20
ROOT
ATOM      1  N   UNL     1     -30.566   7.932   7.308  1.00  0.00    -0.283 N 
ATOM      2  H   UNL     1     -29.781   7.555   6.785  1.00  0.00    +0.189 HD
ENDROOT
BRANCH   1   3
ATOM      3  C   UNL     1     -31.732   7.152   7.191  1.00  0.00    +0.159 A 
ATOM      4  C   UNL     1     -33.579   6.474   5.926  1.00  0.00    +0.130 A 
ATOM      5  N   UNL     1     -32.464   7.221   6.047  1.00  0.00    -0.214 NA
ATOM      6  N   UNL     1     -34.084   5.640   6.850  1.00  0.00    -0.213 NA
ATOM      7  C   UNL     1     -33.348   5.585   7.979  1.00  0.00    +0.168 A 
ATOM      8  C   UNL     1     -32.185   6.304   8.205  1.00  0.00    +0.084 A 
ATOM      9  N   UNL     1     -33.577   4.829   9.130  1.00  0.00    -0.215 N 
ATOM     10  C   UNL     1     -31.784   5.939   9.498  1.00  0.00    +0.150 A 
ATOM     11  N   UNL     1     -32.599   5.053  10.066  1.00  0.00    -0.174 NA
ATOM     12  C   UNL     1     -34.354   6.621   4.652  1.00  0.00    +0.090 C 
BRANCH   9  13
ATOM     13  C   UNL     1     -34.636   3.916   9.424  1.00  0.00    +0.067 A 
ATOM     14  C   UNL     1     -35.643   4.302  10.325  1.00  0.00    +0.028 A 
ATOM     15  C   UNL     1     -34.704   2.644   8.842  1.00  0.00    +0.028 A 
ATOM     16  C   UNL     1     -36.693   3.434  10.635  1.00  0.00    +0.002 A 
ATOM     17  C   UNL     1     -35.758   1.778   9.157  1.00  0.00    +0.002 A 
ATOM     18  C   UNL     1     -36.749   2.173  10.051  1.00  0.00    +0.000 A 
ENDBRANCH   9  13
ENDBRANCH   1   3
BRANCH   1  19
ATOM     19  N   UNL     1     -30.654   9.300   7.330  1.00  0.00    -0.300 N 
ATOM     20  H   UNL     1     -30.987   9.660   8.232  1.00  0.00    +0.188 HD
BRANCH  19  21
ATOM     21  C   UNL     1     -29.654  10.137   6.784  1.00  0.00    +0.054 A 
ATOM     22  C   UNL     1     -29.988  11.450   6.425  1.00  0.00    +0.027 A 
ATOM     23  C   UNL     1     -28.370   9.672   6.474  1.00  0.00    +0.027 A 
ATOM     24  C   UNL     1     -29.051  12.293   5.820  1.00  0.00    +0.002 A 
ATOM     25  C   UNL     1     -27.429  10.511   5.869  1.00  0.00    +0.002 A 
ATOM     26  C   UNL     1     -27.769  11.823   5.547  1.00  0.00    +0.000 A 
ENDBRANCH  19  21
ENDBRANCH   1  19
TORSDOF 4
ENDMDL
MODEL 5
REMARK VINA RESULT:    -9.541      6.210     10.588
REMARK INTER + INTRA:         -11.869
REMARK INTER:                 -10.990
REMARK INTRA:                  -0.878
REMARK UNBOUND:                -0.097
REMARK SMILES Cc1nc(NNc2ccccc2)c2cnn(-c3ccccc3)c2n1
REMARK SMILES IDX 5 1 4 3 2 4 3 5 24 6 23 7 13 8 16 9 14 10 15 11 1 12 17 13
REMARK SMILES IDX 18 14 22 15 19 16 21 17 20 18 6 19 7 21 8 22 12 23 9 24
REMARK SMILES IDX 11 25 10 26
REMARK H PARENT 5 2 6 20
ROOT
ATOM      1  N   UNL     1     -35.215   6.150   9.095  1.00  0.00    -0.283 N 
ATOM      2  H   UNL     1     -34.634   6.811   9.603  1.00  0.00    +0.189 HD
ENDROOT
BRANCH   1   3
ATOM      3  C   UNL     1     -35.109   4.834   9.582  1.00  0.00    +0.159 A 
ATOM      4  C   UNL     1     -36.139   2.923  10.454  1.00  0.00    +0.130 A 
ATOM      5  N   UNL     1     -36.233   4.186   9.990  1.00  0.00    -0.214 NA
ATOM      6  N   UNL     1     -35.014   2.201  10.577  1.00  0.00    -0.213 NA
ATOM      7  C   UNL     1     -33.909   2.859  10.170  1.00  0.00    +0.168 A 
ATOM      8  C   UNL     1     -33.892   4.152   9.673  1.00  0.00    +0.084 A 
ATOM      9  N   UNL     1     -32.586   2.413  10.158  1.00  0.00    -0.215 N 
ATOM     10  C   UNL     1     -32.543   4.412   9.396  1.00  0.00    +0.150 A 
ATOM     11  N   UNL     1     -31.746   3.382   9.673  1.00  0.00    -0.174 NA
ATOM     12  C   UNL     1     -37.411   2.279  10.916  1.00  0.00    +0.090 C 
BRANCH   9  13
ATOM     13  C   UNL     1     -32.047   1.153  10.564  1.00  0.00    +0.067 A 
ATOM     14  C   UNL     1     -31.962   0.855  11.936  1.00  0.00    +0.028 A 
ATOM     15  C   UNL     1     -31.597   0.203   9.639  1.00  0.00    +0.028 A 
ATOM     16  C   UNL     1     -31.440  -0.367  12.368  1.00  0.00    +0.002 A 
ATOM     17  C   UNL     1     -31.074  -1.018  10.078  1.00  0.00    +0.002 A 
ATOM     18  C   UNL     1     -30.996  -1.302  11.439  1.00  0.00    +0.000 A 
ENDBRANCH   9  13
ENDBRANCH   1   3
BRANCH   1  19
ATOM     19  N   UNL     1     -35.320   6.377   7.746  1.00  0.00    -0.300 N 
ATOM     20  H   UNL     1     -36.139   6.946   7.504  1.00  0.00    +0.188 HD
BRANCH  19  21
ATOM     21  C   UNL     1     -34.207   6.715   6.941  1.00  0.00    +0.054 A 
ATOM     22  C   UNL     1     -34.091   6.141   5.668  1.00  0.00    +0.027 A 
ATOM     23  C   UNL     1     -33.152   7.507   7.410  1.00  0.00    +0.027 A 
ATOM     24  C   UNL     1     -32.976   6.392   4.863  1.00  0.00    +0.002 A 
ATOM     25  C   UNL     1     -32.035   7.762   6.608  1.00  0.00    +0.002 A 
ATOM     26  C   UNL     1     -31.950   7.208   5.333  1.00  0.00    +0.000 A 
ENDBRANCH  19  21
ENDBRANCH   1  19
TORSDOF 4
ENDMDL
MODEL 6
REMARK VINA RESULT:    -9.430      5.195      7.385
REMARK INTER + INTRA:         -11.732
REMARK INTER:                 -11.064
REMARK INTRA:                  -0.668
REMARK UNBOUND:                -0.097
REMARK SMILES Cc1nc(NNc2ccccc2)c2cnn(-c3ccccc3)c2n1
REMARK SMILES IDX 5 1 4 3 2 4 3 5 24 6 23 7 13 8 16 9 14 10 15 11 1 12 17 13
REMARK SMILES IDX 18 14 22 15 19 16 21 17 20 18 6 19 7 21 8 22 12 23 9 24
REMARK SMILES IDX 11 25 10 26
REMARK H PARENT 5 2 6 20
ROOT
ATOM      1  N   UNL     1     -33.930   3.964   8.535  1.00  0.00    -0.283 N 
ATOM      2  H   UNL     1     -33.450   3.887   9.428  1.00  0.00    +0.189 HD
ENDROOT
BRANCH   1   3
ATOM      3  C   UNL     1     -33.473   5.042   7.754  1.00  0.00    +0.159 A 
ATOM      4  C   UNL     1     -33.723   6.412   5.874  1.00  0.00    +0.130 A 
ATOM      5  N   UNL     1     -34.152   5.377   6.624  1.00  0.00    -0.214 NA
ATOM      6  N   UNL     1     -32.647   7.180   6.116  1.00  0.00    -0.213 NA
ATOM      7  C   UNL     1     -31.985   6.833   7.239  1.00  0.00    +0.168 A 
ATOM      8  C   UNL     1     -32.341   5.794   8.083  1.00  0.00    +0.084 A 
ATOM      9  N   UNL     1     -30.838   7.412   7.785  1.00  0.00    -0.215 N 
ATOM     10  C   UNL     1     -31.371   5.806   9.094  1.00  0.00    +0.150 A 
ATOM     11  N   UNL     1     -30.466   6.769   8.939  1.00  0.00    -0.174 NA
ATOM     12  C   UNL     1     -34.498   6.707   4.626  1.00  0.00    +0.090 C 
BRANCH   9  13
ATOM     13  C   UNL     1     -30.064   8.517   7.314  1.00  0.00    +0.067 A 
ATOM     14  C   UNL     1     -28.727   8.303   6.936  1.00  0.00    +0.028 A 
ATOM     15  C   UNL     1     -30.593   9.810   7.218  1.00  0.00    +0.028 A 
ATOM     16  C   UNL     1     -27.940   9.361   6.472  1.00  0.00    +0.002 A 
ATOM     17  C   UNL     1     -29.801  10.865   6.753  1.00  0.00    +0.002 A 
ATOM     18  C   UNL     1     -28.478  10.641   6.381  1.00  0.00    +0.000 A 
ENDBRANCH   9  13
ENDBRANCH   1   3
BRANCH   1  19
ATOM     19  N   UNL     1     -35.264   3.648   8.557  1.00  0.00    -0.300 N 
ATOM     20  H   UNL     1     -35.432   2.639   8.475  1.00  0.00    +0.188 HD
BRANCH  19  21
ATOM     21  C   UNL     1     -36.174   4.246   9.460  1.00  0.00    +0.054 A 
ATOM     22  C   UNL     1     -37.549   4.137   9.210  1.00  0.00    +0.027 A 
ATOM     23  C   UNL     1     -35.756   5.045  10.531  1.00  0.00    +0.027 A 
ATOM     24  C   UNL     1     -38.483   4.767  10.036  1.00  0.00    +0.002 A 
ATOM     25  C   UNL     1     -36.688   5.677  11.361  1.00  0.00    +0.002 A 
ATOM     26  C   UNL     1     -38.051   5.534  11.115  1.00  0.00    +0.000 A 
ENDBRANCH  19  21
ENDBRANCH   1  19
TORSDOF 4
ENDMDL
MODEL 7
REMARK VINA RESULT:    -9.196      6.398     10.807
REMARK INTER + INTRA:         -11.444
REMARK INTER:                 -10.706
REMARK INTRA:                  -0.738
REMARK UNBOUND:                -0.097
REMARK SMILES Cc1nc(NNc2ccccc2)c2cnn(-c3ccccc3)c2n1
REMARK SMILES IDX 5 1 4 3 2 4 3 5 24 6 23 7 13 8 16 9 14 10 15 11 1 12 17 13
REMARK SMILES IDX 18 14 22 15 19 16 21 17 20 18 6 19 7 21 8 22 12 23 9 24
REMARK SMILES IDX 11 25 10 26
REMARK H PARENT 5 2 6 20
ROOT
ATOM      1  N   UNL     1     -35.538   3.321   7.412  1.00  0.00    -0.283 N 
ATOM      2  H   UNL     1     -35.380   2.758   6.580  1.00  0.00    +0.189 HD
ENDROOT
BRANCH   1   3
ATOM      3  C   UNL     1     -34.383   3.473   8.202  1.00  0.00    +0.159 A 
ATOM      4  C   UNL     1     -32.568   4.783   8.881  1.00  0.00    +0.130 A 
ATOM      5  N   UNL     1     -33.672   4.629   8.122  1.00  0.00    -0.214 NA
ATOM      6  N   UNL     1     -32.057   3.883   9.736  1.00  0.00    -0.213 NA
ATOM      7  C   UNL     1     -32.773   2.742   9.802  1.00  0.00    +0.168 A 
ATOM      8  C   UNL     1     -33.922   2.481   9.074  1.00  0.00    +0.084 A 
ATOM      9  N   UNL     1     -32.532   1.608  10.580  1.00  0.00    -0.215 N 
ATOM     10  C   UNL     1     -34.304   1.188   9.457  1.00  0.00    +0.150 A 
ATOM     11  N   UNL     1     -33.490   0.650  10.362  1.00  0.00    -0.174 NA
ATOM     12  C   UNL     1     -31.814   6.068   8.720  1.00  0.00    +0.090 C 
BRANCH   9  13
ATOM     13  C   UNL     1     -31.479   1.350  11.512  1.00  0.00    +0.067 A 
ATOM     14  C   UNL     1     -31.805   0.992  12.832  1.00  0.00    +0.028 A 
ATOM     15  C   UNL     1     -30.128   1.443  11.152  1.00  0.00    +0.028 A 
ATOM     16  C   UNL     1     -30.800   0.733  13.768  1.00  0.00    +0.002 A 
ATOM     17  C   UNL     1     -29.127   1.183  12.094  1.00  0.00    +0.002 A 
ATOM     18  C   UNL     1     -29.462   0.830  13.398  1.00  0.00    +0.000 A 
ENDBRANCH   9  13
ENDBRANCH   1   3
BRANCH   1  19
ATOM     19  N   UNL     1     -36.762   3.156   8.008  1.00  0.00    -0.300 N 
ATOM     20  H   UNL     1     -36.991   2.169   8.174  1.00  0.00    +0.188 HD
BRANCH  19  21
ATOM     21  C   UNL     1     -37.205   3.969   9.077  1.00  0.00    +0.054 A 
ATOM     22  C   UNL     1     -37.698   3.356  10.236  1.00  0.00    +0.027 A 
ATOM     23  C   UNL     1     -37.283   5.364   8.979  1.00  0.00    +0.027 A 
ATOM     24  C   UNL     1     -38.210   4.117  11.292  1.00  0.00    +0.002 A 
ATOM     25  C   UNL     1     -37.793   6.129  10.033  1.00  0.00    +0.002 A 
ATOM     26  C   UNL     1     -38.252   5.505  11.190  1.00  0.00    +0.000 A 
ENDBRANCH  19  21
ENDBRANCH   1  19
TORSDOF 4
ENDMDL
MODEL 8
REMARK VINA RESULT:    -8.997      6.127      9.087
REMARK INTER + INTRA:         -11.198
REMARK INTER:                 -10.463
REMARK INTRA:                  -0.735
REMARK UNBOUND:                -0.097
REMARK SMILES Cc1nc(NNc2ccccc2)c2cnn(-c3ccccc3)c2n1
REMARK SMILES IDX 5 1 4 3 2 4 3 5 24 6 23 7 13 8 16 9 14 10 15 11 1 12 17 13
REMARK SMILES IDX 18 14 22 15 19 16 21 17 20 18 6 19 7 21 8 22 12 23 9 24
REMARK SMILES IDX 11 25 10 26
REMARK H PARENT 5 2 6 20
ROOT
ATOM      1  N   UNL     1     -30.869   1.599   9.781  1.00  0.00    -0.283 N 
ATOM      2  H   UNL     1     -30.258   1.454   8.982  1.00  0.00    +0.189 HD
ENDROOT
BRANCH   1   3
ATOM      3  C   UNL     1     -31.716   2.714   9.634  1.00  0.00    +0.159 A 
ATOM      4  C   UNL     1     -31.998   4.964   9.059  1.00  0.00    +0.130 A 
ATOM      5  N   UNL     1     -31.191   3.893   9.207  1.00  0.00    -0.214 NA
ATOM      6  N   UNL     1     -33.317   5.008   9.307  1.00  0.00    -0.213 NA
ATOM      7  C   UNL     1     -33.821   3.831   9.731  1.00  0.00    +0.168 A 
ATOM      8  C   UNL     1     -33.085   2.671   9.912  1.00  0.00    +0.084 A 
ATOM      9  N   UNL     1     -35.138   3.522  10.075  1.00  0.00    -0.215 N 
ATOM     10  C   UNL     1     -34.015   1.725  10.366  1.00  0.00    +0.150 A 
ATOM     11  N   UNL     1     -35.250   2.212  10.464  1.00  0.00    -0.174 NA
ATOM     12  C   UNL     1     -31.349   6.240   8.615  1.00  0.00    +0.090 C 
BRANCH   9  13
ATOM     13  C   UNL     1     -36.300   4.355  10.068  1.00  0.00    +0.067 A 
ATOM     14  C   UNL     1     -37.313   4.108   9.125  1.00  0.00    +0.028 A 
ATOM     15  C   UNL     1     -36.463   5.413  10.971  1.00  0.00    +0.028 A 
ATOM     16  C   UNL     1     -38.462   4.903   9.089  1.00  0.00    +0.002 A 
ATOM     17  C   UNL     1     -37.614   6.206  10.930  1.00  0.00    +0.002 A 
ATOM     18  C   UNL     1     -38.611   5.952   9.991  1.00  0.00    +0.000 A 
ENDBRANCH   9  13
ENDBRANCH   1   3
BRANCH   1  19
ATOM     19  N   UNL     1     -30.315   1.314  11.002  1.00  0.00    -0.300 N 
ATOM     20  H   UNL     1     -30.501   2.044  11.700  1.00  0.00    +0.188 HD
BRANCH  19  21
ATOM     21  C   UNL     1     -30.371   0.027  11.584  1.00  0.00    +0.054 A 
ATOM     22  C   UNL     1     -29.180  -0.689  11.766  1.00  0.00    +0.027 A 
ATOM     23  C   UNL     1     -31.581  -0.615  11.876  1.00  0.00    +0.027 A 
ATOM     24  C   UNL     1     -29.192  -1.991  12.274  1.00  0.00    +0.002 A 
ATOM     25  C   UNL     1     -31.598  -1.917  12.386  1.00  0.00    +0.002 A 
ATOM     26  C   UNL     1     -30.403  -2.603  12.588  1.00  0.00    +0.000 A 
ENDBRANCH  19  21
ENDBRANCH   1  19
TORSDOF 4
ENDMDL
MODEL 9
REMARK VINA RESULT:    -8.979      5.526      7.549
REMARK INTER + INTRA:         -11.176
REMARK INTER:                 -10.496
REMARK INTRA:                  -0.680
REMARK UNBOUND:                -0.097
REMARK SMILES Cc1nc(NNc2ccccc2)c2cnn(-c3ccccc3)c2n1
REMARK SMILES IDX 5 1 4 3 2 4 3 5 24 6 23 7 13 8 16 9 14 10 15 11 1 12 17 13
REMARK SMILES IDX 18 14 22 15 19 16 21 17 20 18 6 19 7 21 8 22 12 23 9 24
REMARK SMILES IDX 11 25 10 26
REMARK H PARENT 5 2 6 20
ROOT
ATOM      1  N   UNL     1     -34.043   1.500  11.169  1.00  0.00    -0.283 N 
ATOM      2  H   UNL     1     -34.705   1.410  11.935  1.00  0.00    +0.189 HD
ENDROOT
BRANCH   1   3
ATOM      3  C   UNL     1     -34.325   2.588  10.321  1.00  0.00    +0.159 A 
ATOM      4  C   UNL     1     -35.898   3.944   9.245  1.00  0.00    +0.130 A 
ATOM      5  N   UNL     1     -35.621   2.900  10.052  1.00  0.00    -0.214 NA
ATOM      6  N   UNL     1     -35.003   4.742   8.638  1.00  0.00    -0.213 NA
ATOM      7  C   UNL     1     -33.724   4.417   8.915  1.00  0.00    +0.168 A 
ATOM      8  C   UNL     1     -33.328   3.371   9.732  1.00  0.00    +0.084 A 
ATOM      9  N   UNL     1     -32.554   5.029   8.460  1.00  0.00    -0.215 N 
ATOM     10  C   UNL     1     -31.927   3.413   9.714  1.00  0.00    +0.150 A 
ATOM     11  N   UNL     1     -31.444   4.401   8.964  1.00  0.00    -0.174 NA
ATOM     12  C   UNL     1     -37.345   4.213   8.964  1.00  0.00    +0.090 C 
BRANCH   9  13
ATOM     13  C   UNL     1     -32.393   6.153   7.592  1.00  0.00    +0.067 A 
ATOM     14  C   UNL     1     -31.626   7.249   8.027  1.00  0.00    +0.028 A 
ATOM     15  C   UNL     1     -32.976   6.201   6.319  1.00  0.00    +0.028 A 
ATOM     16  C   UNL     1     -31.448   8.365   7.205  1.00  0.00    +0.002 A 
ATOM     17  C   UNL     1     -32.795   7.321   5.501  1.00  0.00    +0.002 A 
ATOM     18  C   UNL     1     -32.033   8.400   5.942  1.00  0.00    +0.000 A 
ENDBRANCH   9  13
ENDBRANCH   1   3
BRANCH   1  19
ATOM     19  N   UNL     1     -33.593   0.318  10.641  1.00  0.00    -0.300 N 
ATOM     20  H   UNL     1     -33.893   0.179   9.669  1.00  0.00    +0.188 HD
BRANCH  19  21
ATOM     21  C   UNL     1     -32.274  -0.152  10.838  1.00  0.00    +0.054 A 
ATOM     22  C   UNL     1     -31.365  -0.093   9.773  1.00  0.00    +0.027 A 
ATOM     23  C   UNL     1     -31.869  -0.786  12.019  1.00  0.00    +0.027 A 
ATOM     24  C   UNL     1     -30.071  -0.607   9.900  1.00  0.00    +0.002 A 
ATOM     25  C   UNL     1     -30.576  -1.301  12.151  1.00  0.00    +0.002 A 
ATOM     26  C   UNL     1     -29.676  -1.207  11.092  1.00  0.00    +0.000 A 
ENDBRANCH  19  21
ENDBRANCH   1  19
TORSDOF 4
ENDMDL
