MODEL 1
REMARK VINA RESULT:   -10.224      0.000      0.000
REMARK INTER + INTRA:         -10.523
REMARK INTER:                 -10.523
REMARK INTRA:                   0.000
REMARK UNBOUND:                 0.000
REMARK SMILES Nc1cccc2c1C(=O)c1ccccc1C2=O
REMARK SMILES IDX 1 1 2 4 3 5 7 6 4 7 6 8 8 9 5 10 16 11 9 12 10 13 15 14
REMARK SMILES IDX 17 15 11 16 14 17 12 18 13 19
REMARK H PARENT 1 2 1 3
ROOT
ATOM      1  N   UNL     1     -23.999   8.100   6.532  1.00  0.00    -0.398 N 
ATOM      2  H   UNL     1     -23.487   8.503   7.328  1.00  0.00    +0.156 HD
ATOM      3  H   UNL     1     -23.979   8.698   5.713  1.00  0.00    +0.156 HD
ENDROOT
BRANCH   1   4
ATOM      4  C   UNL     1     -25.277   7.644   6.903  1.00  0.00    +0.043 A 
ATOM      5  C   UNL     1     -25.363   6.427   7.596  1.00  0.00    +0.026 A 
ATOM      6  C   UNL     1     -26.430   8.454   6.806  1.00  0.00    +0.057 A 
ATOM      7  C   UNL     1     -26.574   5.983   8.125  1.00  0.00    +0.003 A 
ATOM      8  C   UNL     1     -27.639   8.011   7.352  1.00  0.00    +0.036 A 
ATOM      9  C   UNL     1     -26.393   9.753   6.086  1.00  0.00    +0.196 C 
ATOM     10  C   UNL     1     -27.713   6.773   8.003  1.00  0.00    +0.013 A 
ATOM     11  C   UNL     1     -28.858   8.842   7.273  1.00  0.00    +0.194 C 
ATOM     12  O   UNL     1     -25.394  10.110   5.467  1.00  0.00    -0.288 OA
ATOM     13  C   UNL     1     -27.589  10.619   6.084  1.00  0.00    +0.034 A 
ATOM     14  C   UNL     1     -28.780  10.177   6.653  1.00  0.00    +0.034 A 
ATOM     15  O   UNL     1     -29.921   8.433   7.722  1.00  0.00    -0.289 OA
ATOM     16  C   UNL     1     -27.529  11.887   5.491  1.00  0.00    +0.013 A 
ATOM     17  C   UNL     1     -29.914  11.002   6.634  1.00  0.00    +0.013 A 
ATOM     18  C   UNL     1     -28.657  12.708   5.475  1.00  0.00    +0.001 A 
ATOM     19  C   UNL     1     -29.849  12.265   6.046  1.00  0.00    +0.001 A 
ENDBRANCH   1   4
TORSDOF 1
ENDMDL
MODEL 2
REMARK VINA RESULT:   -10.014      1.211      4.645
REMARK INTER + INTRA:         -10.307
REMARK INTER:                 -10.307
REMARK INTRA:                   0.000
REMARK UNBOUND:                 0.000
REMARK SMILES Nc1cccc2c1C(=O)c1ccccc1C2=O
REMARK SMILES IDX 1 1 2 4 3 5 7 6 4 7 6 8 8 9 5 10 16 11 9 12 10 13 15 14
REMARK SMILES IDX 17 15 11 16 14 17 12 18 13 19
REMARK H PARENT 1 2 1 3
ROOT
ATOM      1  N   UNL     1     -25.763  11.840   4.628  1.00  0.00    -0.398 N 
ATOM      2  H   UNL     1     -25.292  10.978   4.323  1.00  0.00    +0.156 HD
ATOM      3  H   UNL     1     -25.125  12.499   5.061  1.00  0.00    +0.156 HD
ENDROOT
BRANCH   1   4
ATOM      4  C   UNL     1     -26.931  11.571   5.364  1.00  0.00    +0.043 A 
ATOM      5  C   UNL     1     -28.022  12.438   5.203  1.00  0.00    +0.026 A 
ATOM      6  C   UNL     1     -27.121  10.362   6.070  1.00  0.00    +0.057 A 
ATOM      7  C   UNL     1     -29.258  12.155   5.782  1.00  0.00    +0.003 A 
ATOM      8  C   UNL     1     -28.367  10.075   6.635  1.00  0.00    +0.036 A 
ATOM      9  C   UNL     1     -25.999   9.407   6.266  1.00  0.00    +0.196 C 
ATOM     10  C   UNL     1     -29.433  10.975   6.500  1.00  0.00    +0.013 A 
ATOM     11  C   UNL     1     -28.596   8.815   7.371  1.00  0.00    +0.194 C 
ATOM     12  O   UNL     1     -24.856   9.686   5.914  1.00  0.00    -0.288 OA
ATOM     13  C   UNL     1     -26.254   8.111   6.926  1.00  0.00    +0.034 A 
ATOM     14  C   UNL     1     -27.506   7.826   7.463  1.00  0.00    +0.034 A 
ATOM     15  O   UNL     1     -29.680   8.587   7.894  1.00  0.00    -0.289 OA
ATOM     16  C   UNL     1     -25.223   7.167   7.025  1.00  0.00    +0.013 A 
ATOM     17  C   UNL     1     -27.734   6.598   8.099  1.00  0.00    +0.013 A 
ATOM     18  C   UNL     1     -25.451   5.943   7.656  1.00  0.00    +0.001 A 
ATOM     19  C   UNL     1     -26.706   5.659   8.193  1.00  0.00    +0.001 A 
ENDBRANCH   1   4
TORSDOF 1
ENDMDL
MODEL 3
REMARK VINA RESULT:    -9.988      1.843      5.534
REMARK INTER + INTRA:         -10.280
REMARK INTER:                 -10.280
REMARK INTRA:                   0.000
REMARK UNBOUND:                 0.000
REMARK SMILES Nc1cccc2c1C(=O)c1ccccc1C2=O
REMARK SMILES IDX 1 1 2 4 3 5 7 6 4 7 6 8 8 9 5 10 16 11 9 12 10 13 15 14
REMARK SMILES IDX 17 15 11 16 14 17 12 18 13 19
REMARK H PARENT 1 2 1 3
ROOT
ATOM      1  N   UNL     1     -31.114  10.208   7.434  1.00  0.00    -0.398 N 
ATOM      2  H   UNL     1     -31.312   9.205   7.317  1.00  0.00    +0.156 HD
ATOM      3  H   UNL     1     -31.933  10.785   7.278  1.00  0.00    +0.156 HD
ENDROOT
BRANCH   1   4
ATOM      4  C   UNL     1     -29.964  10.605   6.728  1.00  0.00    +0.043 A 
ATOM      5  C   UNL     1     -29.944  11.896   6.180  1.00  0.00    +0.026 A 
ATOM      6  C   UNL     1     -28.768   9.853   6.742  1.00  0.00    +0.057 A 
ATOM      7  C   UNL     1     -28.788  12.413   5.597  1.00  0.00    +0.003 A 
ATOM      8  C   UNL     1     -27.607  10.382   6.170  1.00  0.00    +0.036 A 
ATOM      9  C   UNL     1     -28.734   8.481   7.313  1.00  0.00    +0.196 C 
ATOM     10  C   UNL     1     -27.619  11.657   5.589  1.00  0.00    +0.013 A 
ATOM     11  C   UNL     1     -26.341   9.621   6.180  1.00  0.00    +0.194 C 
ATOM     12  O   UNL     1     -29.761   7.923   7.692  1.00  0.00    -0.288 OA
ATOM     13  C   UNL     1     -27.449   7.760   7.399  1.00  0.00    +0.034 A 
ATOM     14  C   UNL     1     -26.295   8.308   6.848  1.00  0.00    +0.034 A 
ATOM     15  O   UNL     1     -25.337  10.076   5.645  1.00  0.00    -0.289 OA
ATOM     16  C   UNL     1     -27.395   6.507   8.025  1.00  0.00    +0.013 A 
ATOM     17  C   UNL     1     -25.082   7.609   6.923  1.00  0.00    +0.013 A 
ATOM     18  C   UNL     1     -26.186   5.813   8.101  1.00  0.00    +0.001 A 
ATOM     19  C   UNL     1     -25.031   6.363   7.550  1.00  0.00    +0.001 A 
ENDBRANCH   1   4
TORSDOF 1
ENDMDL
MODEL 4
REMARK VINA RESULT:    -9.755      1.531      3.054
REMARK INTER + INTRA:         -10.040
REMARK INTER:                 -10.040
REMARK INTRA:                   0.000
REMARK UNBOUND:                 0.000
REMARK SMILES Nc1cccc2c1C(=O)c1ccccc1C2=O
REMARK SMILES IDX 1 1 2 4 3 5 7 6 4 7 6 8 8 9 5 10 16 11 9 12 10 13 15 14
REMARK SMILES IDX 17 15 11 16 14 17 12 18 13 19
REMARK H PARENT 1 2 1 3
ROOT
ATOM      1  N   UNL     1     -29.326   6.615   8.418  1.00  0.00    -0.398 N 
ATOM      2  H   UNL     1     -29.937   6.555   7.592  1.00  0.00    +0.156 HD
ATOM      3  H   UNL     1     -29.727   7.179   9.158  1.00  0.00    +0.156 HD
ENDROOT
BRANCH   1   4
ATOM      4  C   UNL     1     -28.002   6.941   8.072  1.00  0.00    +0.043 A 
ATOM      5  C   UNL     1     -27.028   5.939   8.191  1.00  0.00    +0.026 A 
ATOM      6  C   UNL     1     -27.665   8.143   7.411  1.00  0.00    +0.057 A 
ATOM      7  C   UNL     1     -25.727   6.140   7.729  1.00  0.00    +0.003 A 
ATOM      8  C   UNL     1     -26.363   8.333   6.935  1.00  0.00    +0.036 A 
ATOM      9  C   UNL     1     -28.660   9.235   7.255  1.00  0.00    +0.196 C 
ATOM     10  C   UNL     1     -25.393   7.337   7.103  1.00  0.00    +0.013 A 
ATOM     11  C   UNL     1     -25.986   9.577   6.233  1.00  0.00    +0.194 C 
ATOM     12  O   UNL     1     -29.766   9.169   7.784  1.00  0.00    -0.288 OA
ATOM     13  C   UNL     1     -28.305  10.439   6.478  1.00  0.00    +0.034 A 
ATOM     14  C   UNL     1     -27.013  10.606   5.988  1.00  0.00    +0.034 A 
ATOM     15  O   UNL     1     -24.835   9.752   5.851  1.00  0.00    -0.289 OA
ATOM     16  C   UNL     1     -29.271  11.427   6.245  1.00  0.00    +0.013 A 
ATOM     17  C   UNL     1     -26.682  11.758   5.262  1.00  0.00    +0.013 A 
ATOM     18  C   UNL     1     -28.941  12.573   5.520  1.00  0.00    +0.001 A 
ATOM     19  C   UNL     1     -27.647  12.739   5.029  1.00  0.00    +0.001 A 
ENDBRANCH   1   4
TORSDOF 1
ENDMDL
MODEL 5
REMARK VINA RESULT:    -9.423      2.162      4.435
REMARK INTER + INTRA:          -9.698
REMARK INTER:                  -9.698
REMARK INTRA:                   0.000
REMARK UNBOUND:                 0.000
REMARK SMILES Nc1cccc2c1C(=O)c1ccccc1C2=O
REMARK SMILES IDX 1 1 2 4 3 5 7 6 4 7 6 8 8 9 5 10 16 11 9 12 10 13 15 14
REMARK SMILES IDX 17 15 11 16 14 17 12 18 13 19
REMARK H PARENT 1 2 1 3
ROOT
ATOM      1  N   UNL     1     -25.601   9.738   5.829  1.00  0.00    -0.398 N 
ATOM      2  H   UNL     1     -24.686  10.183   5.682  1.00  0.00    +0.156 HD
ATOM      3  H   UNL     1     -25.750   8.944   5.216  1.00  0.00    +0.156 HD
ENDROOT
BRANCH   1   4
ATOM      4  C   UNL     1     -26.648  10.677   5.851  1.00  0.00    +0.043 A 
ATOM      5  C   UNL     1     -26.419  11.927   5.257  1.00  0.00    +0.026 A 
ATOM      6  C   UNL     1     -27.963  10.339   6.240  1.00  0.00    +0.057 A 
ATOM      7  C   UNL     1     -27.450  12.854   5.108  1.00  0.00    +0.003 A 
ATOM      8  C   UNL     1     -28.997  11.266   6.074  1.00  0.00    +0.036 A 
ATOM      9  C   UNL     1     -28.260   9.027   6.871  1.00  0.00    +0.196 C 
ATOM     10  C   UNL     1     -28.739  12.526   5.517  1.00  0.00    +0.013 A 
ATOM     11  C   UNL     1     -30.383  10.935   6.464  1.00  0.00    +0.194 C 
ATOM     12  O   UNL     1     -27.361   8.245   7.168  1.00  0.00    -0.288 OA
ATOM     13  C   UNL     1     -29.658   8.668   7.179  1.00  0.00    +0.034 A 
ATOM     14  C   UNL     1     -30.683   9.590   6.987  1.00  0.00    +0.034 A 
ATOM     15  O   UNL     1     -31.277  11.765   6.349  1.00  0.00    -0.289 OA
ATOM     16  C   UNL     1     -29.954   7.394   7.683  1.00  0.00    +0.013 A 
ATOM     17  C   UNL     1     -32.006   9.243   7.294  1.00  0.00    +0.013 A 
ATOM     18  C   UNL     1     -31.272   7.049   7.987  1.00  0.00    +0.001 A 
ATOM     19  C   UNL     1     -32.297   7.973   7.793  1.00  0.00    +0.001 A 
ENDBRANCH   1   4
TORSDOF 1
ENDMDL
MODEL 6
REMARK VINA RESULT:    -8.678      2.468      3.720
REMARK INTER + INTRA:          -8.931
REMARK INTER:                  -8.931
REMARK INTRA:                   0.000
REMARK UNBOUND:                 0.000
REMARK SMILES Nc1cccc2c1C(=O)c1ccccc1C2=O
REMARK SMILES IDX 1 1 2 4 3 5 7 6 4 7 6 8 8 9 5 10 16 11 9 12 10 13 15 14
REMARK SMILES IDX 17 15 11 16 14 17 12 18 13 19
REMARK H PARENT 1 2 1 3
ROOT
ATOM      1  N   UNL     1     -28.996   6.530   8.361  1.00  0.00    -0.398 N 
ATOM      2  H   UNL     1     -29.358   5.925   9.111  1.00  0.00    +0.156 HD
ATOM      3  H   UNL     1     -28.114   6.966   8.606  1.00  0.00    +0.156 HD
ENDROOT
BRANCH   1   4
ATOM      4  C   UNL     1     -29.979   7.407   7.870  1.00  0.00    +0.043 A 
ATOM      5  C   UNL     1     -31.315   7.153   8.212  1.00  0.00    +0.026 A 
ATOM      6  C   UNL     1     -29.658   8.634   7.248  1.00  0.00    +0.057 A 
ATOM      7  C   UNL     1     -32.327   8.056   7.889  1.00  0.00    +0.003 A 
ATOM      8  C   UNL     1     -30.675   9.544   6.939  1.00  0.00    +0.036 A 
ATOM      9  C   UNL     1     -28.258   8.955   6.867  1.00  0.00    +0.196 C 
ATOM     10  C   UNL     1     -32.009   9.251   7.251  1.00  0.00    +0.013 A 
ATOM     11  C   UNL     1     -30.366  10.838   6.296  1.00  0.00    +0.194 C 
ATOM     12  O   UNL     1     -27.360   8.126   6.986  1.00  0.00    -0.288 OA
ATOM     13  C   UNL     1     -27.943  10.283   6.305  1.00  0.00    +0.034 A 
ATOM     14  C   UNL     1     -28.961  11.191   6.025  1.00  0.00    +0.034 A 
ATOM     15  O   UNL     1     -31.265  11.614   5.997  1.00  0.00    -0.289 OA
ATOM     16  C   UNL     1     -26.611  10.627   6.036  1.00  0.00    +0.013 A 
ATOM     17  C   UNL     1     -28.652  12.444   5.479  1.00  0.00    +0.013 A 
ATOM     18  C   UNL     1     -26.305  11.876   5.495  1.00  0.00    +0.001 A 
ATOM     19  C   UNL     1     -27.324  12.784   5.216  1.00  0.00    +0.001 A 
ENDBRANCH   1   4
TORSDOF 1
ENDMDL
MODEL 7
REMARK VINA RESULT:    -8.358      2.737      4.630
REMARK INTER + INTRA:          -8.603
REMARK INTER:                  -8.603
REMARK INTRA:                   0.000
REMARK UNBOUND:                 0.000
REMARK SMILES Nc1cccc2c1C(=O)c1ccccc1C2=O
REMARK SMILES IDX 1 1 2 4 3 5 7 6 4 7 6 8 8 9 5 10 16 11 9 12 10 13 15 14
REMARK SMILES IDX 17 15 11 16 14 17 12 18 13 19
REMARK H PARENT 1 2 1 3
ROOT
ATOM      1  N   UNL     1     -31.499  10.656   6.152  1.00  0.00    -0.398 N 
ATOM      2  H   UNL     1     -32.366  10.569   5.603  1.00  0.00    +0.156 HD
ATOM      3  H   UNL     1     -30.720  10.988   5.596  1.00  0.00    +0.156 HD
ENDROOT
BRANCH   1   4
ATOM      4  C   UNL     1     -31.239   9.503   6.914  1.00  0.00    +0.043 A 
ATOM      5  C   UNL     1     -32.334   8.733   7.332  1.00  0.00    +0.026 A 
ATOM      6  C   UNL     1     -29.937   8.981   7.080  1.00  0.00    +0.057 A 
ATOM      7  C   UNL     1     -32.151   7.502   7.962  1.00  0.00    +0.003 A 
ATOM      8  C   UNL     1     -29.759   7.740   7.699  1.00  0.00    +0.036 A 
ATOM      9  C   UNL     1     -28.743   9.756   6.653  1.00  0.00    +0.196 C 
ATOM     10  C   UNL     1     -30.864   7.005   8.148  1.00  0.00    +0.013 A 
ATOM     11  C   UNL     1     -28.409   7.167   7.877  1.00  0.00    +0.194 C 
ATOM     12  O   UNL     1     -28.845  10.908   6.241  1.00  0.00    -0.288 OA
ATOM     13  C   UNL     1     -27.404   9.143   6.753  1.00  0.00    +0.034 A 
ATOM     14  C   UNL     1     -27.242   7.895   7.349  1.00  0.00    +0.034 A 
ATOM     15  O   UNL     1     -28.258   6.095   8.451  1.00  0.00    -0.289 OA
ATOM     16  C   UNL     1     -26.286   9.829   6.261  1.00  0.00    +0.013 A 
ATOM     17  C   UNL     1     -25.964   7.327   7.451  1.00  0.00    +0.013 A 
ATOM     18  C   UNL     1     -25.014   9.262   6.361  1.00  0.00    +0.001 A 
ATOM     19  C   UNL     1     -24.853   8.013   6.956  1.00  0.00    +0.001 A 
ENDBRANCH   1   4
TORSDOF 1
ENDMDL
MODEL 8
REMARK VINA RESULT:    -8.216      3.554      4.909
REMARK INTER + INTRA:          -8.456
REMARK INTER:                  -8.456
REMARK INTRA:                   0.000
REMARK UNBOUND:                 0.000
REMARK SMILES Nc1cccc2c1C(=O)c1ccccc1C2=O
REMARK SMILES IDX 1 1 2 4 3 5 7 6 4 7 6 8 8 9 5 10 16 11 9 12 10 13 15 14
REMARK SMILES IDX 17 15 11 16 14 17 12 18 13 19
REMARK H PARENT 1 2 1 3
ROOT
ATOM      1  N   UNL     1     -33.847   7.620   7.317  1.00  0.00    -0.398 N 
ATOM      2  H   UNL     1     -34.419   6.941   6.798  1.00  0.00    +0.156 HD
ATOM      3  H   UNL     1     -33.660   8.460   6.780  1.00  0.00    +0.156 HD
ENDROOT
BRANCH   1   4
ATOM      4  C   UNL     1     -32.716   7.022   7.900  1.00  0.00    +0.043 A 
ATOM      5  C   UNL     1     -32.863   5.740   8.451  1.00  0.00    +0.026 A 
ATOM      6  C   UNL     1     -31.416   7.554   7.755  1.00  0.00    +0.057 A 
ATOM      7  C   UNL     1     -31.760   5.023   8.914  1.00  0.00    +0.003 A 
ATOM      8  C   UNL     1     -30.311   6.825   8.206  1.00  0.00    +0.036 A 
ATOM      9  C   UNL     1     -31.203   8.906   7.175  1.00  0.00    +0.196 C 
ATOM     10  C   UNL     1     -30.484   5.564   8.793  1.00  0.00    +0.013 A 
ATOM     11  C   UNL     1     -28.940   7.354   8.058  1.00  0.00    +0.194 C 
ATOM     12  O   UNL     1     -32.151   9.638   6.902  1.00  0.00    -0.288 OA
ATOM     13  C   UNL     1     -29.828   9.394   6.950  1.00  0.00    +0.034 A 
ATOM     14  C   UNL     1     -28.736   8.647   7.380  1.00  0.00    +0.034 A 
ATOM     15  O   UNL     1     -27.980   6.725   8.487  1.00  0.00    -0.289 OA
ATOM     16  C   UNL     1     -29.623  10.625   6.312  1.00  0.00    +0.013 A 
ATOM     17  C   UNL     1     -27.434   9.125   7.173  1.00  0.00    +0.013 A 
ATOM     18  C   UNL     1     -28.327  11.099   6.105  1.00  0.00    +0.001 A 
ATOM     19  C   UNL     1     -27.233  10.350   6.536  1.00  0.00    +0.001 A 
ENDBRANCH   1   4
TORSDOF 1
ENDMDL
MODEL 9
REMARK VINA RESULT:    -7.707      8.504      9.890
REMARK INTER + INTRA:          -7.932
REMARK INTER:                  -7.932
REMARK INTRA:                   0.000
REMARK UNBOUND:                 0.000
REMARK SMILES Nc1cccc2c1C(=O)c1ccccc1C2=O
REMARK SMILES IDX 1 1 2 4 3 5 7 6 4 7 6 8 8 9 5 10 16 11 9 12 10 13 15 14
REMARK SMILES IDX 17 15 11 16 14 17 12 18 13 19
REMARK H PARENT 1 2 1 3
ROOT
ATOM      1  N   UNL     1     -23.472  -1.332  10.459  1.00  0.00    -0.398 N 
ATOM      2  H   UNL     1     -22.460  -1.522  10.472  1.00  0.00    +0.156 HD
ATOM      3  H   UNL     1     -23.920  -1.672   9.616  1.00  0.00    +0.156 HD
ENDROOT
BRANCH   1   4
ATOM      4  C   UNL     1     -23.761   0.004  10.790  1.00  0.00    +0.043 A 
ATOM      5  C   UNL     1     -22.688   0.900  10.901  1.00  0.00    +0.026 A 
ATOM      6  C   UNL     1     -25.078   0.516  10.794  1.00  0.00    +0.057 A 
ATOM      7  C   UNL     1     -22.904   2.265  11.080  1.00  0.00    +0.003 A 
ATOM      8  C   UNL     1     -25.289   1.889  10.958  1.00  0.00    +0.036 A 
ATOM      9  C   UNL     1     -26.251  -0.389  10.678  1.00  0.00    +0.196 C 
ATOM     10  C   UNL     1     -24.204   2.762  11.110  1.00  0.00    +0.013 A 
ATOM     11  C   UNL     1     -26.655   2.452  10.958  1.00  0.00    +0.194 C 
ATOM     12  O   UNL     1     -26.116  -1.609  10.679  1.00  0.00    -0.288 OA
ATOM     13  C   UNL     1     -27.608   0.186  10.590  1.00  0.00    +0.034 A 
ATOM     14  C   UNL     1     -27.804   1.557  10.730  1.00  0.00    +0.034 A 
ATOM     15  O   UNL     1     -26.834   3.651  11.137  1.00  0.00    -0.289 OA
ATOM     16  C   UNL     1     -28.708  -0.657  10.381  1.00  0.00    +0.013 A 
ATOM     17  C   UNL     1     -29.097   2.091  10.658  1.00  0.00    +0.013 A 
ATOM     18  C   UNL     1     -29.995  -0.124  10.307  1.00  0.00    +0.001 A 
ATOM     19  C   UNL     1     -30.190   1.249  10.446  1.00  0.00    +0.001 A 
ENDBRANCH   1   4
TORSDOF 1
ENDMDL
