REMARK SMILES O=C1C(Cl)=C(Oc2ccccc2)C(=O)c2ccccc21
REMARK SMILES IDX 4 1 3 2 5 3 13 4 14 5 15 6 20 7 19 8 18 9 17 10 16 11 2 12
REMARK SMILES IDX 1 13 6 14 7 15 8 16 12 17 9 18 11 19 10 20
REMARK H PARENT
ROOT
ATOM      1 Cl   UNL     1      -0.235  -1.787   3.191  1.00  0.00    -0.076 Cl
ATOM      2  C   UNL     1       0.490  -0.797   1.967  1.00  0.00    +0.135 C 
ATOM      3  C   UNL     1      -0.235   0.084   1.265  1.00  0.00    +0.197 C 
ATOM      4  C   UNL     1       0.422   0.968   0.259  1.00  0.00    +0.230 C 
ATOM      5  O   UNL     1      -0.172   1.893  -0.284  1.00  0.00    -0.285 OA
ATOM      6  C   UNL     1       1.840   0.721  -0.061  1.00  0.00    +0.037 A 
ATOM      7  C   UNL     1       2.572  -0.226   0.648  1.00  0.00    +0.035 A 
ATOM      8  C   UNL     1       3.923  -0.440   0.339  1.00  0.00    +0.013 A 
ATOM      9  C   UNL     1       4.534   0.295  -0.679  1.00  0.00    +0.001 A 
ATOM     10  C   UNL     1       3.801   1.245  -1.388  1.00  0.00    +0.001 A 
ATOM     11  C   UNL     1       2.457   1.461  -1.081  1.00  0.00    +0.013 A 
ATOM     12  C   UNL     1       1.941  -1.006   1.728  1.00  0.00    +0.209 C 
ATOM     13  O   UNL     1       2.611  -1.800   2.378  1.00  0.00    -0.287 OA
ENDROOT
BRANCH   3  14
ATOM     14  O   UNL     1      -1.593   0.266   1.515  1.00  0.00    -0.451 OA
BRANCH  14  15
ATOM     15  C   UNL     1      -2.446  -0.034   0.478  1.00  0.00    +0.127 A 
ATOM     16  C   UNL     1      -3.319   0.964   0.046  1.00  0.00    +0.047 A 
ATOM     17  C   UNL     1      -2.498  -1.311  -0.086  1.00  0.00    +0.047 A 
ATOM     18  C   UNL     1      -4.224   0.697  -0.981  1.00  0.00    +0.004 A 
ATOM     19  C   UNL     1      -3.406  -1.576  -1.112  1.00  0.00    +0.004 A 
ATOM     20  C   UNL     1      -4.265  -0.572  -1.561  1.00  0.00    +0.000 A 
ENDBRANCH  14  15
ENDBRANCH   3  14
TORSDOF 2
