REMARK SMILES O=S(=O)(O)c1ccc(O)c2cc(Nc3ccccc3)ccc12
REMARK SMILES IDX 8 1 10 2 11 3 12 4 20 5 21 6 22 7 5 8 6 9 7 10 9 11 13 13
REMARK SMILES IDX 14 15 15 16 19 17 16 18 18 19 17 20 2 21 1 22 3 23 4 24
REMARK H PARENT 9 12 13 14 4 25
ROOT
ATOM      1  C   UNL     1      -2.576  -2.247  -0.480  1.00  0.00    +0.123 A 
ATOM      2  C   UNL     1      -1.617  -1.266  -0.130  1.00  0.00    +0.027 A 
ATOM      3  C   UNL     1      -0.235  -1.561   0.003  1.00  0.00    +0.038 A 
ATOM      4  C   UNL     1       0.718  -0.597   0.361  1.00  0.00    +0.039 A 
ATOM      5  C   UNL     1       0.273   0.702   0.570  1.00  0.00    +0.027 A 
ATOM      6  C   UNL     1      -1.079   1.030   0.431  1.00  0.00    +0.012 A 
ATOM      7  C   UNL     1      -2.055   0.069   0.073  1.00  0.00    +0.007 A 
ATOM      8  C   UNL     1      -3.439   0.355  -0.105  1.00  0.00    +0.102 A 
ATOM      9  C   UNL     1      -4.356  -0.633  -0.485  1.00  0.00    +0.027 A 
ATOM     10  C   UNL     1      -3.918  -1.936  -0.673  1.00  0.00    +0.048 A 
ENDROOT
BRANCH   1  11
ATOM     11  O   UNL     1      -2.265  -3.572  -0.646  1.00  0.00    -0.507 OA
ATOM     12  H   UNL     1      -1.494  -3.781  -0.097  1.00  0.00    +0.293 HD
ENDBRANCH   1  11
BRANCH   4  13
ATOM     13  N   UNL     1       2.071  -0.965   0.431  1.00  0.00    -0.356 N 
ATOM     14  H   UNL     1       2.231  -1.938   0.665  1.00  0.00    +0.167 HD
BRANCH  13  15
ATOM     15  C   UNL     1       3.255  -0.225   0.259  1.00  0.00    +0.038 A 
ATOM     16  C   UNL     1       4.417  -0.639   0.927  1.00  0.00    +0.026 A 
ATOM     17  C   UNL     1       3.320   0.941  -0.512  1.00  0.00    +0.026 A 
ATOM     18  C   UNL     1       5.609   0.083   0.818  1.00  0.00    +0.002 A 
ATOM     19  C   UNL     1       4.510   1.666  -0.625  1.00  0.00    +0.002 A 
ATOM     20  C   UNL     1       5.655   1.237   0.041  1.00  0.00    +0.000 A 
ENDBRANCH  13  15
ENDBRANCH   4  13
BRANCH   8  21
ATOM     21  S   UNL     1      -4.061   2.000   0.151  1.00  0.00    +0.295 S 
ATOM     22  O   UNL     1      -3.845   2.352   1.538  1.00  0.00    -0.194 OA
ATOM     23  O   UNL     1      -3.586   2.831  -0.932  1.00  0.00    -0.194 OA
BRANCH  21  24
ATOM     24  O   UNL     1      -5.666   1.903   0.003  1.00  0.00    -0.282 OA
ATOM     25  H   UNL     1      -6.056   2.454   0.714  1.00  0.00    +0.234 HD
ENDBRANCH  21  24
ENDBRANCH   8  21
TORSDOF 5
