REMARK SMILES Cc1ccc2c(c1[N+](=O)[O-])C(=O)c1ccccc1C2=O
REMARK SMILES IDX 1 1 2 2 7 3 6 4 5 5 4 6 3 7 19 8 20 9 18 10 17 11 16 12
REMARK SMILES IDX 15 13 14 14 13 15 11 16 12 17 8 18 9 19 10 20
REMARK H PARENT
ROOT
ATOM      1  C   UNL     1      -4.428   0.042  -0.132  1.00  0.00    +0.052 C 
ATOM      2  C   UNL     1      -2.975  -0.338  -0.235  1.00  0.00    +0.028 A 
ATOM      3  C   UNL     1      -1.931   0.557   0.096  1.00  0.00    +0.284 A 
ATOM      4  C   UNL     1      -0.575   0.199  -0.002  1.00  0.00    +0.112 A 
ATOM      5  C   UNL     1      -0.268  -1.090  -0.444  1.00  0.00    +0.041 A 
ATOM      6  C   UNL     1      -1.290  -1.993  -0.777  1.00  0.00    +0.014 A 
ATOM      7  C   UNL     1      -2.630  -1.621  -0.674  1.00  0.00    +0.011 A 
ATOM      8  C   UNL     1       1.134  -1.542  -0.574  1.00  0.00    +0.194 C 
ATOM      9  O   UNL     1       1.385  -2.677  -0.963  1.00  0.00    -0.289 OA
ATOM     10  C   UNL     1       2.225  -0.616  -0.231  1.00  0.00    +0.034 A 
ATOM     11  C   UNL     1       3.557  -1.034  -0.350  1.00  0.00    +0.013 A 
ATOM     12  C   UNL     1       4.595  -0.159  -0.026  1.00  0.00    +0.001 A 
ATOM     13  C   UNL     1       4.306   1.131   0.417  1.00  0.00    +0.001 A 
ATOM     14  C   UNL     1       2.978   1.548   0.535  1.00  0.00    +0.013 A 
ATOM     15  C   UNL     1       1.934   0.671   0.211  1.00  0.00    +0.034 A 
ATOM     16  C   UNL     1       0.534   1.121   0.340  1.00  0.00    +0.201 C 
ATOM     17  O   UNL     1       0.309   2.257   0.730  1.00  0.00    -0.288 OA
ENDROOT
BRANCH   3  18
ATOM     18  N   UNL     1      -2.304   1.883   0.549  1.00  0.00    +0.063 N 
ATOM     19  O   UNL     1      -2.517   2.015   1.762  1.00  0.00    -0.258 OA
ATOM     20  O   UNL     1      -2.476   2.740  -0.328  1.00  0.00    -0.258 OA
ENDBRANCH   3  18
TORSDOF 1
