MODEL 1
REMARK VINA RESULT:   -13.809      0.000      0.000
REMARK INTER + INTRA:         -17.273
REMARK INTER:                 -16.231
REMARK INTRA:                  -1.043
REMARK UNBOUND:                -1.043
REMARK SMILES c1ccc2c3c(cc(CCc4cc5c(c6ccccc46)CCCC5)c2c1)CCCC3
REMARK SMILES IDX 9 1 8 2 28 3 29 4 27 5 30 6 6 7 5 8 7 9 4 10 3 11 25 12 2 13
REMARK SMILES IDX 26 14 1 15 10 16 11 17 20 18 12 19 19 20 15 21 13 22 18 23
REMARK SMILES IDX 16 24 14 25 24 26 17 27 21 28 23 29 22 30
REMARK H PARENT
ROOT
ATOM      1  C   UNL     1     -30.676   7.462   8.631  1.00  0.00    +0.041 C 
ENDROOT
BRANCH   1   2
ATOM      2  C   UNL     1     -31.794   6.470   8.362  1.00  0.00    -0.040 A 
ATOM      3  C   UNL     1     -34.811   3.360  10.513  1.00  0.00    +0.005 C 
ATOM      4  C   UNL     1     -35.661   3.323   9.240  1.00  0.00    +0.005 C 
ATOM      5  C   UNL     1     -33.317   3.534  10.260  1.00  0.00    +0.036 C 
ATOM      6  C   UNL     1     -34.868   3.447   7.935  1.00  0.00    +0.036 C 
ATOM      7  C   UNL     1     -33.064   4.576   9.201  1.00  0.00    -0.044 A 
ATOM      8  C   UNL     1     -33.823   4.544   8.015  1.00  0.00    -0.037 A 
ATOM      9  C   UNL     1     -32.060   5.526   9.364  1.00  0.00    +0.008 A 
ATOM     10  C   UNL     1     -33.549   5.462   6.964  1.00  0.00    -0.015 A 
ATOM     11  C   UNL     1     -34.242   5.447   5.728  1.00  0.00    +0.009 A 
ATOM     12  C   UNL     1     -32.531   6.443   7.145  1.00  0.00    -0.015 A 
ATOM     13  C   UNL     1     -33.970   6.359   4.708  1.00  0.00    +0.001 A 
ATOM     14  C   UNL     1     -32.284   7.356   6.092  1.00  0.00    +0.009 A 
ATOM     15  C   UNL     1     -32.992   7.318   4.892  1.00  0.00    +0.001 A 
ENDBRANCH   1   2
BRANCH   1  16
ATOM     16  C   UNL     1     -29.338   6.977   8.061  1.00  0.00    +0.041 C 
BRANCH  16  17
ATOM     17  C   UNL     1     -28.576   8.101   7.382  1.00  0.00    -0.040 A 
ATOM     18  C   UNL     1     -27.186   8.041   7.106  1.00  0.00    -0.015 A 
ATOM     19  C   UNL     1     -29.302   9.255   7.053  1.00  0.00    +0.008 A 
ATOM     20  C   UNL     1     -26.395   6.915   7.439  1.00  0.00    +0.009 A 
ATOM     21  C   UNL     1     -26.553   9.150   6.477  1.00  0.00    -0.015 A 
ATOM     22  C   UNL     1     -28.693  10.355   6.444  1.00  0.00    -0.044 A 
ATOM     23  C   UNL     1     -25.026   6.863   7.177  1.00  0.00    +0.001 A 
ATOM     24  C   UNL     1     -25.159   9.066   6.233  1.00  0.00    +0.009 A 
ATOM     25  C   UNL     1     -27.324  10.299   6.121  1.00  0.00    -0.037 A 
ATOM     26  C   UNL     1     -29.557  11.549   6.109  1.00  0.00    +0.036 C 
ATOM     27  C   UNL     1     -24.407   7.943   6.575  1.00  0.00    +0.001 A 
ATOM     28  C   UNL     1     -26.666  11.491   5.444  1.00  0.00    +0.036 C 
ATOM     29  C   UNL     1     -28.755  12.815   5.837  1.00  0.00    +0.005 C 
ATOM     30  C   UNL     1     -27.640  12.509   4.852  1.00  0.00    +0.005 C 
ENDBRANCH  16  17
ENDBRANCH   1  16
TORSDOF 3
ENDMDL
MODEL 2
REMARK VINA RESULT:   -13.195      1.459      8.266
REMARK INTER + INTRA:         -16.552
REMARK INTER:                 -15.512
REMARK INTRA:                  -1.039
REMARK UNBOUND:                -1.043
REMARK SMILES c1ccc2c3c(cc(CCc4cc5c(c6ccccc46)CCCC5)c2c1)CCCC3
REMARK SMILES IDX 9 1 8 2 28 3 29 4 27 5 30 6 6 7 5 8 7 9 4 10 3 11 25 12 2 13
REMARK SMILES IDX 26 14 1 15 10 16 11 17 20 18 12 19 19 20 15 21 13 22 18 23
REMARK SMILES IDX 16 24 14 25 24 26 17 27 21 28 23 29 22 30
REMARK H PARENT
ROOT
ATOM      1  C   UNL     1     -32.049   7.944   7.798  1.00  0.00    +0.041 C 
ENDROOT
BRANCH   1   2
ATOM      2  C   UNL     1     -30.595   8.309   7.554  1.00  0.00    -0.040 A 
ATOM      3  C   UNL     1     -26.155   6.439   7.111  1.00  0.00    +0.005 C 
ATOM      4  C   UNL     1     -25.675   7.757   6.497  1.00  0.00    +0.005 C 
ATOM      5  C   UNL     1     -27.240   6.604   8.171  1.00  0.00    +0.036 C 
ATOM      6  C   UNL     1     -26.348   9.012   7.063  1.00  0.00    +0.036 C 
ATOM      7  C   UNL     1     -28.275   7.609   7.736  1.00  0.00    -0.044 A 
ATOM      8  C   UNL     1     -27.849   8.836   7.188  1.00  0.00    -0.037 A 
ATOM      9  C   UNL     1     -29.632   7.358   7.919  1.00  0.00    +0.008 A 
ATOM     10  C   UNL     1     -28.801   9.837   6.848  1.00  0.00    -0.015 A 
ATOM     11  C   UNL     1     -28.433  11.108   6.342  1.00  0.00    +0.009 A 
ATOM     12  C   UNL     1     -30.189   9.564   7.022  1.00  0.00    -0.015 A 
ATOM     13  C   UNL     1     -29.376  12.078   6.002  1.00  0.00    +0.001 A 
ATOM     14  C   UNL     1     -31.120  10.569   6.663  1.00  0.00    +0.009 A 
ATOM     15  C   UNL     1     -30.723  11.807   6.160  1.00  0.00    +0.001 A 
ENDBRANCH   1   2
BRANCH   1  16
ATOM     16  C   UNL     1     -32.409   6.596   7.162  1.00  0.00    +0.041 C 
BRANCH  16  17
ATOM     17  C   UNL     1     -33.295   5.765   8.073  1.00  0.00    -0.040 A 
ATOM     18  C   UNL     1     -32.811   4.679   8.848  1.00  0.00    -0.015 A 
ATOM     19  C   UNL     1     -34.660   6.088   8.104  1.00  0.00    +0.008 A 
ATOM     20  C   UNL     1     -31.450   4.288   8.837  1.00  0.00    +0.009 A 
ATOM     21  C   UNL     1     -33.718   3.947   9.664  1.00  0.00    -0.015 A 
ATOM     22  C   UNL     1     -35.564   5.373   8.893  1.00  0.00    -0.044 A 
ATOM     23  C   UNL     1     -30.978   3.213   9.590  1.00  0.00    +0.001 A 
ATOM     24  C   UNL     1     -33.206   2.857  10.410  1.00  0.00    +0.009 A 
ATOM     25  C   UNL     1     -35.097   4.321   9.703  1.00  0.00    -0.037 A 
ATOM     26  C   UNL     1     -37.012   5.804   8.878  1.00  0.00    +0.036 C 
ATOM     27  C   UNL     1     -31.860   2.494  10.376  1.00  0.00    +0.001 A 
ATOM     28  C   UNL     1     -36.080   3.554  10.574  1.00  0.00    +0.036 C 
ATOM     29  C   UNL     1     -37.960   4.745   9.426  1.00  0.00    +0.005 C 
ATOM     30  C   UNL     1     -37.437   4.232  10.757  1.00  0.00    +0.005 C 
ENDBRANCH  16  17
ENDBRANCH   1  16
TORSDOF 3
ENDMDL
MODEL 3
REMARK VINA RESULT:   -13.028      1.407      2.269
REMARK INTER + INTRA:         -16.355
REMARK INTER:                 -15.585
REMARK INTRA:                  -0.770
REMARK UNBOUND:                -1.043
REMARK SMILES c1ccc2c3c(cc(CCc4cc5c(c6ccccc46)CCCC5)c2c1)CCCC3
REMARK SMILES IDX 9 1 8 2 28 3 29 4 27 5 30 6 6 7 5 8 7 9 4 10 3 11 25 12 2 13
REMARK SMILES IDX 26 14 1 15 10 16 11 17 20 18 12 19 19 20 15 21 13 22 18 23
REMARK SMILES IDX 16 24 14 25 24 26 17 27 21 28 23 29 22 30
REMARK H PARENT
ROOT
ATOM      1  C   UNL     1     -31.177   6.599   8.258  1.00  0.00    +0.041 C 
ENDROOT
BRANCH   1   2
ATOM      2  C   UNL     1     -31.847   5.312   8.710  1.00  0.00    -0.040 A 
ATOM      3  C   UNL     1     -31.169   1.316  11.351  1.00  0.00    +0.005 C 
ATOM      4  C   UNL     1     -32.678   1.060  11.329  1.00  0.00    +0.005 C 
ATOM      5  C   UNL     1     -30.629   1.969  10.083  1.00  0.00    +0.036 C 
ATOM      6  C   UNL     1     -33.382   1.484  10.036  1.00  0.00    +0.036 C 
ATOM      7  C   UNL     1     -31.535   3.080   9.616  1.00  0.00    -0.044 A 
ATOM      8  C   UNL     1     -32.925   2.853   9.570  1.00  0.00    -0.037 A 
ATOM      9  C   UNL     1     -31.009   4.293   9.185  1.00  0.00    +0.008 A 
ATOM     10  C   UNL     1     -33.797   3.852   9.054  1.00  0.00    -0.015 A 
ATOM     11  C   UNL     1     -35.196   3.665   8.934  1.00  0.00    +0.009 A 
ATOM     12  C   UNL     1     -33.251   5.099   8.632  1.00  0.00    -0.015 A 
ATOM     13  C   UNL     1     -36.041   4.657   8.436  1.00  0.00    +0.001 A 
ATOM     14  C   UNL     1     -34.138   6.085   8.135  1.00  0.00    +0.009 A 
ATOM     15  C   UNL     1     -35.512   5.871   8.039  1.00  0.00    +0.001 A 
ENDBRANCH   1   2
BRANCH   1  16
ATOM     16  C   UNL     1     -29.653   6.526   8.404  1.00  0.00    +0.041 C 
BRANCH  16  17
ATOM     17  C   UNL     1     -28.968   7.695   7.720  1.00  0.00    -0.040 A 
ATOM     18  C   UNL     1     -27.585   7.708   7.404  1.00  0.00    -0.015 A 
ATOM     19  C   UNL     1     -29.758   8.817   7.430  1.00  0.00    +0.008 A 
ATOM     20  C   UNL     1     -26.730   6.617   7.697  1.00  0.00    +0.009 A 
ATOM     21  C   UNL     1     -27.025   8.855   6.774  1.00  0.00    -0.015 A 
ATOM     22  C   UNL     1     -29.222   9.953   6.820  1.00  0.00    -0.044 A 
ATOM     23  C   UNL     1     -25.369   6.636   7.396  1.00  0.00    +0.001 A 
ATOM     24  C   UNL     1     -25.637   8.843   6.489  1.00  0.00    +0.009 A 
ATOM     25  C   UNL     1     -27.862   9.969   6.457  1.00  0.00    -0.037 A 
ATOM     26  C   UNL     1     -30.152  11.107   6.528  1.00  0.00    +0.036 C 
ATOM     27  C   UNL     1     -24.821   7.754   6.793  1.00  0.00    +0.001 A 
ATOM     28  C   UNL     1     -27.283  11.201   5.779  1.00  0.00    +0.036 C 
ATOM     29  C   UNL     1     -29.421  12.415   6.251  1.00  0.00    +0.005 C 
ATOM     30  C   UNL     1     -28.322  12.178   5.230  1.00  0.00    +0.005 C 
ENDBRANCH  16  17
ENDBRANCH   1  16
TORSDOF 3
ENDMDL
MODEL 4
REMARK VINA RESULT:   -12.609      1.724      4.368
REMARK INTER + INTRA:         -15.863
REMARK INTER:                 -15.093
REMARK INTRA:                  -0.770
REMARK UNBOUND:                -1.043
REMARK SMILES c1ccc2c3c(cc(CCc4cc5c(c6ccccc46)CCCC5)c2c1)CCCC3
REMARK SMILES IDX 9 1 8 2 28 3 29 4 27 5 30 6 6 7 5 8 7 9 4 10 3 11 25 12 2 13
REMARK SMILES IDX 26 14 1 15 10 16 11 17 20 18 12 19 19 20 15 21 13 22 18 23
REMARK SMILES IDX 16 24 14 25 24 26 17 27 21 28 23 29 22 30
REMARK H PARENT
ROOT
ATOM      1  C   UNL     1     -30.980   5.795   8.818  1.00  0.00    +0.041 C 
ENDROOT
BRANCH   1   2
ATOM      2  C   UNL     1     -32.237   5.017   9.166  1.00  0.00    -0.040 A 
ATOM      3  C   UNL     1     -37.060   5.083   8.794  1.00  0.00    +0.005 C 
ATOM      4  C   UNL     1     -37.097   3.596   9.157  1.00  0.00    +0.005 C 
ATOM      5  C   UNL     1     -35.942   5.864   9.477  1.00  0.00    +0.036 C 
ATOM      6  C   UNL     1     -36.021   3.152  10.154  1.00  0.00    +0.036 C 
ATOM      7  C   UNL     1     -34.649   5.092   9.455  1.00  0.00    -0.044 A 
ATOM      8  C   UNL     1     -34.661   3.727   9.807  1.00  0.00    -0.037 A 
ATOM      9  C   UNL     1     -33.448   5.723   9.146  1.00  0.00    +0.008 A 
ATOM     10  C   UNL     1     -33.444   2.994   9.877  1.00  0.00    -0.015 A 
ATOM     11  C   UNL     1     -33.386   1.635  10.273  1.00  0.00    +0.009 A 
ATOM     12  C   UNL     1     -32.221   3.644   9.541  1.00  0.00    -0.015 A 
ATOM     13  C   UNL     1     -32.187   0.924  10.328  1.00  0.00    +0.001 A 
ATOM     14  C   UNL     1     -31.023   2.893   9.603  1.00  0.00    +0.009 A 
ATOM     15  C   UNL     1     -31.003   1.553   9.989  1.00  0.00    +0.001 A 
ENDBRANCH   1   2
BRANCH   1  16
ATOM     16  C   UNL     1     -31.308   7.110   8.101  1.00  0.00    +0.041 C 
BRANCH  16  17
ATOM     17  C   UNL     1     -30.051   7.854   7.690  1.00  0.00    -0.040 A 
ATOM     18  C   UNL     1     -30.057   9.194   7.226  1.00  0.00    -0.015 A 
ATOM     19  C   UNL     1     -28.842   7.144   7.750  1.00  0.00    +0.008 A 
ATOM     20  C   UNL     1     -31.249   9.952   7.116  1.00  0.00    +0.009 A 
ATOM     21  C   UNL     1     -28.829   9.807   6.848  1.00  0.00    -0.015 A 
ATOM     22  C   UNL     1     -27.630   7.729   7.375  1.00  0.00    -0.044 A 
ATOM     23  C   UNL     1     -31.255  11.266   6.649  1.00  0.00    +0.001 A 
ATOM     24  C   UNL     1     -28.874  11.140   6.371  1.00  0.00    +0.009 A 
ATOM     25  C   UNL     1     -27.608   9.072   6.954  1.00  0.00    -0.037 A 
ATOM     26  C   UNL     1     -26.375   6.895   7.490  1.00  0.00    +0.036 C 
ATOM     27  C   UNL     1     -30.064  11.860   6.273  1.00  0.00    +0.001 A 
ATOM     28  C   UNL     1     -26.286   9.712   6.561  1.00  0.00    +0.036 C 
ATOM     29  C   UNL     1     -25.203   7.458   6.696  1.00  0.00    +0.005 C 
ATOM     30  C   UNL     1     -25.044   8.937   7.001  1.00  0.00    +0.005 C 
ENDBRANCH  16  17
ENDBRANCH   1  16
TORSDOF 3
ENDMDL
MODEL 5
REMARK VINA RESULT:   -12.226      1.493      4.147
REMARK INTER + INTRA:         -15.413
REMARK INTER:                 -14.498
REMARK INTRA:                  -0.915
REMARK UNBOUND:                -1.043
REMARK SMILES c1ccc2c3c(cc(CCc4cc5c(c6ccccc46)CCCC5)c2c1)CCCC3
REMARK SMILES IDX 9 1 8 2 28 3 29 4 27 5 30 6 6 7 5 8 7 9 4 10 3 11 25 12 2 13
REMARK SMILES IDX 26 14 1 15 10 16 11 17 20 18 12 19 19 20 15 21 13 22 18 23
REMARK SMILES IDX 16 24 14 25 24 26 17 27 21 28 23 29 22 30
REMARK H PARENT
ROOT
ATOM      1  C   UNL     1     -32.237   6.222   7.526  1.00  0.00    +0.041 C 
ENDROOT
BRANCH   1   2
ATOM      2  C   UNL     1     -32.758   5.105   8.415  1.00  0.00    -0.040 A 
ATOM      3  C   UNL     1     -31.365   1.603  11.447  1.00  0.00    +0.005 C 
ATOM      4  C   UNL     1     -32.804   1.487  11.956  1.00  0.00    +0.005 C 
ATOM      5  C   UNL     1     -31.252   1.966   9.970  1.00  0.00    +0.036 C 
ATOM      6  C   UNL     1     -33.882   1.736  10.894  1.00  0.00    +0.036 C 
ATOM      7  C   UNL     1     -32.230   3.053   9.602  1.00  0.00    -0.044 A 
ATOM      8  C   UNL     1     -33.564   2.951  10.045  1.00  0.00    -0.037 A 
ATOM      9  C   UNL     1     -31.840   4.115   8.793  1.00  0.00    +0.008 A 
ATOM     10  C   UNL     1     -34.527   3.917   9.643  1.00  0.00    -0.015 A 
ATOM     11  C   UNL     1     -35.893   3.841  10.011  1.00  0.00    +0.009 A 
ATOM     12  C   UNL     1     -34.115   5.012   8.829  1.00  0.00    -0.015 A 
ATOM     13  C   UNL     1     -36.827   4.801   9.619  1.00  0.00    +0.001 A 
ATOM     14  C   UNL     1     -35.087   5.970   8.452  1.00  0.00    +0.009 A 
ATOM     15  C   UNL     1     -36.422   5.870   8.841  1.00  0.00    +0.001 A 
ENDBRANCH   1   2
BRANCH   1  16
ATOM     16  C   UNL     1     -31.767   7.428   8.349  1.00  0.00    +0.041 C 
BRANCH  16  17
ATOM     17  C   UNL     1     -30.395   7.905   7.910  1.00  0.00    -0.040 A 
ATOM     18  C   UNL     1     -30.165   9.177   7.326  1.00  0.00    -0.015 A 
ATOM     19  C   UNL     1     -29.326   7.010   8.071  1.00  0.00    +0.008 A 
ATOM     20  C   UNL     1     -31.207  10.113   7.112  1.00  0.00    +0.009 A 
ATOM     21  C   UNL     1     -28.844   9.535   6.932  1.00  0.00    -0.015 A 
ATOM     22  C   UNL     1     -28.027   7.343   7.681  1.00  0.00    -0.044 A 
ATOM     23  C   UNL     1     -30.981  11.358   6.527  1.00  0.00    +0.001 A 
ATOM     24  C   UNL     1     -28.652  10.805   6.334  1.00  0.00    +0.009 A 
ATOM     25  C   UNL     1     -27.769   8.617   7.140  1.00  0.00    -0.037 A 
ATOM     26  C   UNL     1     -26.935   6.323   7.910  1.00  0.00    +0.036 C 
ATOM     27  C   UNL     1     -29.700  11.703   6.134  1.00  0.00    +0.001 A 
ATOM     28  C   UNL     1     -26.351   8.983   6.731  1.00  0.00    +0.036 C 
ATOM     29  C   UNL     1     -25.673   6.601   7.103  1.00  0.00    +0.005 C 
ATOM     30  C   UNL     1     -25.267   8.054   7.277  1.00  0.00    +0.005 C 
ENDBRANCH  16  17
ENDBRANCH   1  16
TORSDOF 3
ENDMDL
MODEL 6
REMARK VINA RESULT:   -11.944      1.331      2.713
REMARK INTER + INTRA:         -15.082
REMARK INTER:                 -14.933
REMARK INTRA:                  -0.149
REMARK UNBOUND:                -1.043
REMARK SMILES c1ccc2c3c(cc(CCc4cc5c(c6ccccc46)CCCC5)c2c1)CCCC3
REMARK SMILES IDX 9 1 8 2 28 3 29 4 27 5 30 6 6 7 5 8 7 9 4 10 3 11 25 12 2 13
REMARK SMILES IDX 26 14 1 15 10 16 11 17 20 18 12 19 19 20 15 21 13 22 18 23
REMARK SMILES IDX 16 24 14 25 24 26 17 27 21 28 23 29 22 30
REMARK H PARENT
ROOT
ATOM      1  C   UNL     1     -31.439   6.856   7.609  1.00  0.00    +0.041 C 
ENDROOT
BRANCH   1   2
ATOM      2  C   UNL     1     -32.314   5.786   8.238  1.00  0.00    -0.040 A 
ATOM      3  C   UNL     1     -36.850   4.115   8.433  1.00  0.00    +0.005 C 
ATOM      4  C   UNL     1     -36.332   2.818   9.060  1.00  0.00    +0.005 C 
ATOM      5  C   UNL     1     -36.058   5.358   8.826  1.00  0.00    +0.036 C 
ATOM      6  C   UNL     1     -35.124   2.991   9.987  1.00  0.00    +0.036 C 
ATOM      7  C   UNL     1     -34.575   5.089   8.792  1.00  0.00    -0.044 A 
ATOM      8  C   UNL     1     -34.080   3.910   9.384  1.00  0.00    -0.037 A 
ATOM      9  C   UNL     1     -33.698   6.013   8.234  1.00  0.00    +0.008 A 
ATOM     10  C   UNL     1     -32.679   3.671   9.441  1.00  0.00    -0.015 A 
ATOM     11  C   UNL     1     -32.117   2.531  10.067  1.00  0.00    +0.009 A 
ATOM     12  C   UNL     1     -31.789   4.615   8.850  1.00  0.00    -0.015 A 
ATOM     13  C   UNL     1     -30.742   2.303  10.108  1.00  0.00    +0.001 A 
ATOM     14  C   UNL     1     -30.399   4.351   8.906  1.00  0.00    +0.009 A 
ATOM     15  C   UNL     1     -29.880   3.213   9.523  1.00  0.00    +0.001 A 
ENDBRANCH   1   2
BRANCH   1  16
ATOM     16  C   UNL     1     -30.147   7.072   8.406  1.00  0.00    +0.041 C 
BRANCH  16  17
ATOM     17  C   UNL     1     -29.200   8.019   7.692  1.00  0.00    -0.040 A 
ATOM     18  C   UNL     1     -27.825   7.736   7.489  1.00  0.00    -0.015 A 
ATOM     19  C   UNL     1     -29.730   9.242   7.253  1.00  0.00    +0.008 A 
ATOM     20  C   UNL     1     -27.225   6.532   7.934  1.00  0.00    +0.009 A 
ATOM     21  C   UNL     1     -27.008   8.691   6.820  1.00  0.00    -0.015 A 
ATOM     22  C   UNL     1     -28.940  10.193   6.603  1.00  0.00    -0.044 A 
ATOM     23  C   UNL     1     -25.871   6.261   7.743  1.00  0.00    +0.001 A 
ATOM     24  C   UNL     1     -25.635   8.385   6.650  1.00  0.00    +0.009 A 
ATOM     25  C   UNL     1     -27.583   9.912   6.351  1.00  0.00    -0.037 A 
ATOM     26  C   UNL     1     -29.601  11.473   6.148  1.00  0.00    +0.036 C 
ATOM     27  C   UNL     1     -25.074   7.191   7.102  1.00  0.00    +0.001 A 
ATOM     28  C   UNL     1     -26.728  10.941   5.630  1.00  0.00    +0.036 C 
ATOM     29  C   UNL     1     -28.607  12.584   5.832  1.00  0.00    +0.005 C 
ATOM     30  C   UNL     1     -27.514  12.046   4.925  1.00  0.00    +0.005 C 
ENDBRANCH  16  17
ENDBRANCH   1  16
TORSDOF 3
ENDMDL
MODEL 7
REMARK VINA RESULT:   -11.769      4.277      7.694
REMARK INTER + INTRA:         -14.875
REMARK INTER:                 -14.201
REMARK INTRA:                  -0.675
REMARK UNBOUND:                -1.043
REMARK SMILES c1ccc2c3c(cc(CCc4cc5c(c6ccccc46)CCCC5)c2c1)CCCC3
REMARK SMILES IDX 9 1 8 2 28 3 29 4 27 5 30 6 6 7 5 8 7 9 4 10 3 11 25 12 2 13
REMARK SMILES IDX 26 14 1 15 10 16 11 17 20 18 12 19 19 20 15 21 13 22 18 23
REMARK SMILES IDX 16 24 14 25 24 26 17 27 21 28 23 29 22 30
REMARK H PARENT
ROOT
ATOM      1  C   UNL     1     -32.623   2.072  10.956  1.00  0.00    +0.041 C 
ENDROOT
BRANCH   1   2
ATOM      2  C   UNL     1     -33.346   3.112  10.118  1.00  0.00    -0.040 A 
ATOM      3  C   UNL     1     -32.742   6.276   6.508  1.00  0.00    +0.005 C 
ATOM      4  C   UNL     1     -34.263   6.378   6.359  1.00  0.00    +0.005 C 
ATOM      5  C   UNL     1     -32.269   6.053   7.941  1.00  0.00    +0.036 C 
ATOM      6  C   UNL     1     -35.045   6.258   7.672  1.00  0.00    +0.036 C 
ATOM      7  C   UNL     1     -33.126   5.030   8.642  1.00  0.00    -0.044 A 
ATOM      8  C   UNL     1     -34.528   5.122   8.532  1.00  0.00    -0.037 A 
ATOM      9  C   UNL     1     -32.550   4.039   9.431  1.00  0.00    +0.008 A 
ATOM     10  C   UNL     1     -35.363   4.222   9.251  1.00  0.00    -0.015 A 
ATOM     11  C   UNL     1     -36.777   4.295   9.223  1.00  0.00    +0.009 A 
ATOM     12  C   UNL     1     -34.764   3.199  10.042  1.00  0.00    -0.015 A 
ATOM     13  C   UNL     1     -37.586   3.400   9.924  1.00  0.00    +0.001 A 
ATOM     14  C   UNL     1     -35.613   2.305  10.738  1.00  0.00    +0.009 A 
ATOM     15  C   UNL     1     -37.003   2.400  10.680  1.00  0.00    +0.001 A 
ENDBRANCH   1   2
BRANCH   1  16
ATOM     16  C   UNL     1     -31.486   1.404  10.174  1.00  0.00    +0.041 C 
BRANCH  16  17
ATOM     17  C   UNL     1     -30.130   1.710  10.785  1.00  0.00    -0.040 A 
ATOM     18  C   UNL     1     -29.772   1.338  12.106  1.00  0.00    -0.015 A 
ATOM     19  C   UNL     1     -29.220   2.425   9.992  1.00  0.00    +0.008 A 
ATOM     20  C   UNL     1     -30.657   0.640  12.964  1.00  0.00    +0.009 A 
ATOM     21  C   UNL     1     -28.481   1.679  12.600  1.00  0.00    -0.015 A 
ATOM     22  C   UNL     1     -27.953   2.775  10.465  1.00  0.00    -0.044 A 
ATOM     23  C   UNL     1     -30.307   0.286  14.266  1.00  0.00    +0.001 A 
ATOM     24  C   UNL     1     -28.162   1.311  13.930  1.00  0.00    +0.009 A 
ATOM     25  C   UNL     1     -27.561   2.377  11.757  1.00  0.00    -0.037 A 
ATOM     26  C   UNL     1     -27.033   3.529   9.534  1.00  0.00    +0.036 C 
ATOM     27  C   UNL     1     -29.057   0.625  14.751  1.00  0.00    +0.001 A 
ATOM     28  C   UNL     1     -26.176   2.745  12.265  1.00  0.00    +0.036 C 
ATOM     29  C   UNL     1     -25.872   4.205  10.254  1.00  0.00    +0.005 C 
ATOM     30  C   UNL     1     -25.201   3.210  11.185  1.00  0.00    +0.005 C 
ENDBRANCH  16  17
ENDBRANCH   1  16
TORSDOF 3
ENDMDL
MODEL 8
REMARK VINA RESULT:   -11.560      4.205      9.279
REMARK INTER + INTRA:         -14.630
REMARK INTER:                 -13.825
REMARK INTRA:                  -0.805
REMARK UNBOUND:                -1.043
REMARK SMILES c1ccc2c3c(cc(CCc4cc5c(c6ccccc46)CCCC5)c2c1)CCCC3
REMARK SMILES IDX 9 1 8 2 28 3 29 4 27 5 30 6 6 7 5 8 7 9 4 10 3 11 25 12 2 13
REMARK SMILES IDX 26 14 1 15 10 16 11 17 20 18 12 19 19 20 15 21 13 22 18 23
REMARK SMILES IDX 16 24 14 25 24 26 17 27 21 28 23 29 22 30
REMARK H PARENT
ROOT
ATOM      1  C   UNL     1     -31.886   1.222  10.683  1.00  0.00    +0.041 C 
ENDROOT
BRANCH   1   2
ATOM      2  C   UNL     1     -30.467   1.455  11.174  1.00  0.00    -0.040 A 
ATOM      3  C   UNL     1     -26.432   3.976  10.298  1.00  0.00    +0.005 C 
ATOM      4  C   UNL     1     -25.920   3.618  11.696  1.00  0.00    +0.005 C 
ATOM      5  C   UNL     1     -27.280   2.887   9.647  1.00  0.00    +0.036 C 
ATOM      6  C   UNL     1     -26.328   2.227  12.192  1.00  0.00    +0.036 C 
ATOM      7  C   UNL     1     -28.252   2.294  10.634  1.00  0.00    -0.044 A 
ATOM      8  C   UNL     1     -27.791   1.939  11.918  1.00  0.00    -0.037 A 
ATOM      9  C   UNL     1     -29.572   2.046  10.272  1.00  0.00    +0.008 A 
ATOM     10  C   UNL     1     -28.664   1.300  12.841  1.00  0.00    -0.015 A 
ATOM     11  C   UNL     1     -28.248   0.873  14.126  1.00  0.00    +0.009 A 
ATOM     12  C   UNL     1     -30.020   1.067  12.468  1.00  0.00    -0.015 A 
ATOM     13  C   UNL     1     -29.117   0.256  15.026  1.00  0.00    +0.001 A 
ATOM     14  C   UNL     1     -30.876   0.441  13.406  1.00  0.00    +0.009 A 
ATOM     15  C   UNL     1     -30.435   0.043  14.667  1.00  0.00    +0.001 A 
ENDBRANCH   1   2
BRANCH   1  16
ATOM     16  C   UNL     1     -32.888   2.142  11.390  1.00  0.00    +0.041 C 
BRANCH  16  17
ATOM     17  C   UNL     1     -33.449   3.190  10.445  1.00  0.00    -0.040 A 
ATOM     18  C   UNL     1     -34.835   3.332  10.177  1.00  0.00    -0.015 A 
ATOM     19  C   UNL     1     -32.525   4.022   9.795  1.00  0.00    +0.008 A 
ATOM     20  C   UNL     1     -35.812   2.504  10.781  1.00  0.00    +0.009 A 
ATOM     21  C   UNL     1     -35.268   4.335   9.265  1.00  0.00    -0.015 A 
ATOM     22  C   UNL     1     -32.935   5.006   8.891  1.00  0.00    -0.044 A 
ATOM     23  C   UNL     1     -37.173   2.637  10.506  1.00  0.00    +0.001 A 
ATOM     24  C   UNL     1     -36.658   4.438   9.005  1.00  0.00    +0.009 A 
ATOM     25  C   UNL     1     -34.308   5.192   8.645  1.00  0.00    -0.037 A 
ATOM     26  C   UNL     1     -31.871   5.868   8.252  1.00  0.00    +0.036 C 
ATOM     27  C   UNL     1     -37.596   3.605   9.614  1.00  0.00    +0.001 A 
ATOM     28  C   UNL     1     -34.753   6.274   7.673  1.00  0.00    +0.036 C 
ATOM     29  C   UNL     1     -32.361   6.608   7.014  1.00  0.00    +0.005 C 
ATOM     30  C   UNL     1     -33.677   7.300   7.320  1.00  0.00    +0.005 C 
ENDBRANCH  16  17
ENDBRANCH   1  16
TORSDOF 3
ENDMDL
MODEL 9
REMARK VINA RESULT:   -11.503      6.896      9.603
REMARK INTER + INTRA:         -14.563
REMARK INTER:                 -12.519
REMARK INTRA:                  -2.044
REMARK UNBOUND:                -1.043
REMARK SMILES c1ccc2c3c(cc(CCc4cc5c(c6ccccc46)CCCC5)c2c1)CCCC3
REMARK SMILES IDX 9 1 8 2 28 3 29 4 27 5 30 6 6 7 5 8 7 9 4 10 3 11 25 12 2 13
REMARK SMILES IDX 26 14 1 15 10 16 11 17 20 18 12 19 19 20 15 21 13 22 18 23
REMARK SMILES IDX 16 24 14 25 24 26 17 27 21 28 23 29 22 30
REMARK H PARENT
ROOT
ATOM      1  C   UNL     1     -29.930   0.854  14.607  1.00  0.00    +0.041 C 
ENDROOT
BRANCH   1   2
ATOM      2  C   UNL     1     -30.530  -0.346  13.895  1.00  0.00    -0.040 A 
ATOM      3  C   UNL     1     -32.647  -4.631  14.642  1.00  0.00    +0.005 C 
ATOM      4  C   UNL     1     -33.117  -4.640  13.184  1.00  0.00    +0.005 C 
ATOM      5  C   UNL     1     -31.297  -3.955  14.858  1.00  0.00    +0.036 C 
ATOM      6  C   UNL     1     -32.146  -3.988  12.194  1.00  0.00    +0.036 C 
ATOM      7  C   UNL     1     -31.198  -2.676  14.068  1.00  0.00    -0.044 A 
ATOM      8  C   UNL     1     -31.607  -2.672  12.719  1.00  0.00    -0.037 A 
ATOM      9  C   UNL     1     -30.663  -1.526  14.640  1.00  0.00    +0.008 A 
ATOM     10  C   UNL     1     -31.446  -1.502  11.926  1.00  0.00    -0.015 A 
ATOM     11  C   UNL     1     -31.789  -1.451  10.553  1.00  0.00    +0.009 A 
ATOM     12  C   UNL     1     -30.913  -0.324  12.525  1.00  0.00    -0.015 A 
ATOM     13  C   UNL     1     -31.636  -0.294   9.787  1.00  0.00    +0.001 A 
ATOM     14  C   UNL     1     -30.775   0.834  11.721  1.00  0.00    +0.009 A 
ATOM     15  C   UNL     1     -31.131   0.851  10.373  1.00  0.00    +0.001 A 
ENDBRANCH   1   2
BRANCH   1  16
ATOM     16  C   UNL     1     -28.417   0.699  14.801  1.00  0.00    +0.041 C 
BRANCH  16  17
ATOM     17  C   UNL     1     -27.661   0.911  13.502  1.00  0.00    -0.040 A 
ATOM     18  C   UNL     1     -27.311  -0.149  12.626  1.00  0.00    -0.015 A 
ATOM     19  C   UNL     1     -27.272   2.224  13.196  1.00  0.00    +0.008 A 
ATOM     20  C   UNL     1     -27.650  -1.498  12.894  1.00  0.00    +0.009 A 
ATOM     21  C   UNL     1     -26.588   0.142  11.434  1.00  0.00    -0.015 A 
ATOM     22  C   UNL     1     -26.555   2.524  12.035  1.00  0.00    -0.044 A 
ATOM     23  C   UNL     1     -27.295  -2.539  12.037  1.00  0.00    +0.001 A 
ATOM     24  C   UNL     1     -26.238  -0.941  10.591  1.00  0.00    +0.009 A 
ATOM     25  C   UNL     1     -26.237   1.494  11.130  1.00  0.00    -0.037 A 
ATOM     26  C   UNL     1     -26.196   3.969  11.778  1.00  0.00    +0.036 C 
ATOM     27  C   UNL     1     -26.584  -2.260  10.884  1.00  0.00    +0.001 A 
ATOM     28  C   UNL     1     -25.470   1.824   9.860  1.00  0.00    +0.036 C 
ATOM     29  C   UNL     1     -25.096   4.139  10.738  1.00  0.00    +0.005 C 
ATOM     30  C   UNL     1     -25.424   3.311   9.508  1.00  0.00    +0.005 C 
ENDBRANCH  16  17
ENDBRANCH   1  16
TORSDOF 3
ENDMDL
