REMARK SMILES Nc1ccc(O)c2c1C(=O)c1ccccc1C2=O
REMARK SMILES IDX 2 1 3 2 4 3 5 4 7 5 8 6 9 7 10 8 11 9 16 10 15 11 14 12
REMARK SMILES IDX 13 13 12 14 17 15 18 16 1 17 6 20
REMARK H PARENT 1 18 1 19 6 21
ROOT
ATOM      1  C   UNL     1      -2.251   0.793   1.021  1.00  0.00    +0.044 A 
ATOM      2  C   UNL     1      -3.322  -0.109   1.082  1.00  0.00    +0.030 A 
ATOM      3  C   UNL     1      -3.221  -1.381   0.520  1.00  0.00    +0.049 A 
ATOM      4  C   UNL     1      -2.029  -1.779  -0.072  1.00  0.00    +0.127 A 
ATOM      5  C   UNL     1      -0.926  -0.914  -0.108  1.00  0.00    +0.078 A 
ATOM      6  C   UNL     1      -1.034   0.370   0.439  1.00  0.00    +0.060 A 
ATOM      7  C   UNL     1       0.128   1.296   0.354  1.00  0.00    +0.196 C 
ATOM      8  O   UNL     1       0.028   2.475   0.683  1.00  0.00    -0.288 OA
ATOM      9  C   UNL     1       1.418   0.802  -0.165  1.00  0.00    +0.034 A 
ATOM     10  C   UNL     1       1.522  -0.484  -0.682  1.00  0.00    +0.034 A 
ATOM     11  C   UNL     1       2.747  -0.942  -1.186  1.00  0.00    +0.013 A 
ATOM     12  C   UNL     1       3.865  -0.107  -1.168  1.00  0.00    +0.001 A 
ATOM     13  C   UNL     1       3.762   1.184  -0.651  1.00  0.00    +0.001 A 
ATOM     14  C   UNL     1       2.541   1.641  -0.151  1.00  0.00    +0.013 A 
ATOM     15  C   UNL     1       0.345  -1.367  -0.707  1.00  0.00    +0.198 C 
ATOM     16  O   UNL     1       0.415  -2.484  -1.214  1.00  0.00    -0.288 OA
ENDROOT
BRANCH   1  17
ATOM     17  N   UNL     1      -2.366   1.997   1.739  1.00  0.00    -0.398 N 
ATOM     18  H   UNL     1      -1.639   2.676   1.479  1.00  0.00    +0.156 HD
ATOM     19  H   UNL     1      -3.294   2.406   1.748  1.00  0.00    +0.156 HD
ENDBRANCH   1  17
BRANCH   4  20
ATOM     20  O   UNL     1      -2.010  -3.047  -0.589  1.00  0.00    -0.507 OA
ATOM     21  H   UNL     1      -1.118  -3.209  -0.974  1.00  0.00    +0.293 HD
ENDBRANCH   4  20
TORSDOF 2
