MODEL 1
REMARK VINA RESULT:   -10.879      0.000      0.000
REMARK INTER + INTRA:         -13.511
REMARK INTER:                 -13.105
REMARK INTRA:                  -0.406
REMARK UNBOUND:                -0.406
REMARK SMILES NNC(=O)CCc1cc2ccccc2c2ccccc12
REMARK SMILES IDX 2 1 3 2 4 3 1 5 5 8 6 9 7 10 20 11 8 12 19 13 15 14 9 15
REMARK SMILES IDX 18 16 16 17 14 18 10 19 17 20 13 21 11 22 12 23
REMARK H PARENT 2 4 1 6 1 7
ROOT
ATOM      1  N   UNL     1     -33.995   7.787   7.333  1.00  0.00    -0.294 N 
ATOM      2  C   UNL     1     -32.612   7.636   7.356  1.00  0.00    +0.234 C 
ATOM      3  O   UNL     1     -32.045   6.759   8.001  1.00  0.00    -0.274 OA
ATOM      4  H   UNL     1     -34.436   8.434   6.683  1.00  0.00    +0.184 HD
ENDROOT
BRANCH   1   5
ATOM      5  N   UNL     1     -34.804   6.850   8.009  1.00  0.00    -0.248 NA
ATOM      6  H   UNL     1     -35.725   7.281   8.140  1.00  0.00    +0.143 HD
ATOM      7  H   UNL     1     -34.445   6.782   8.971  1.00  0.00    +0.143 HD
ENDBRANCH   1   5
BRANCH   2   8
ATOM      8  C   UNL     1     -31.898   8.667   6.505  1.00  0.00    +0.106 C 
BRANCH   8   9
ATOM      9  C   UNL     1     -30.938   9.513   7.343  1.00  0.00    +0.046 C 
BRANCH   9  10
ATOM     10  C   UNL     1     -29.445   9.395   7.054  1.00  0.00    -0.039 A 
ATOM     11  C   UNL     1     -28.747  10.472   6.438  1.00  0.00    -0.015 A 
ATOM     12  C   UNL     1     -28.740   8.231   7.387  1.00  0.00    +0.013 A 
ATOM     13  C   UNL     1     -29.401  11.676   6.075  1.00  0.00    +0.009 A 
ATOM     14  C   UNL     1     -27.352  10.352   6.171  1.00  0.00    -0.010 A 
ATOM     15  C   UNL     1     -27.371   8.091   7.136  1.00  0.00    -0.017 A 
ATOM     16  C   UNL     1     -28.731  12.739   5.471  1.00  0.00    +0.001 A 
ATOM     17  C   UNL     1     -26.706  11.456   5.554  1.00  0.00    +0.009 A 
ATOM     18  C   UNL     1     -26.654   9.143   6.525  1.00  0.00    -0.011 A 
ATOM     19  C   UNL     1     -26.724   6.895   7.496  1.00  0.00    +0.009 A 
ATOM     20  C   UNL     1     -27.379  12.629   5.210  1.00  0.00    +0.001 A 
ATOM     21  C   UNL     1     -25.269   8.919   6.305  1.00  0.00    +0.009 A 
ATOM     22  C   UNL     1     -25.364   6.712   7.264  1.00  0.00    +0.001 A 
ATOM     23  C   UNL     1     -24.634   7.725   6.668  1.00  0.00    +0.001 A 
ENDBRANCH   9  10
ENDBRANCH   8   9
ENDBRANCH   2   8
TORSDOF 4
ENDMDL
MODEL 2
REMARK VINA RESULT:   -10.117      3.321      5.418
REMARK INTER + INTRA:         -12.593
REMARK INTER:                 -12.249
REMARK INTRA:                  -0.344
REMARK UNBOUND:                -0.406
REMARK SMILES NNC(=O)CCc1cc2ccccc2c2ccccc12
REMARK SMILES IDX 2 1 3 2 4 3 1 5 5 8 6 9 7 10 20 11 8 12 19 13 15 14 9 15
REMARK SMILES IDX 18 16 16 17 14 18 10 19 17 20 13 21 11 22 12 23
REMARK H PARENT 2 4 1 6 1 7
ROOT
ATOM      1  N   UNL     1     -26.699   5.125   9.678  1.00  0.00    -0.294 N 
ATOM      2  C   UNL     1     -25.861   5.234   8.573  1.00  0.00    +0.234 C 
ATOM      3  O   UNL     1     -24.828   4.584   8.450  1.00  0.00    -0.274 OA
ATOM      4  H   UNL     1     -27.613   5.573   9.685  1.00  0.00    +0.184 HD
ENDROOT
BRANCH   1   5
ATOM      5  N   UNL     1     -26.407   4.170  10.675  1.00  0.00    -0.248 NA
ATOM      6  H   UNL     1     -25.964   4.667  11.454  1.00  0.00    +0.143 HD
ATOM      7  H   UNL     1     -25.643   3.582  10.314  1.00  0.00    +0.143 HD
ENDBRANCH   1   5
BRANCH   2   8
ATOM      8  C   UNL     1     -26.367   6.236   7.555  1.00  0.00    +0.106 C 
BRANCH   8   9
ATOM      9  C   UNL     1     -27.702   6.845   7.988  1.00  0.00    +0.046 C 
BRANCH   9  10
ATOM     10  C   UNL     1     -28.095   8.195   7.395  1.00  0.00    -0.039 A 
ATOM     11  C   UNL     1     -29.464   8.577   7.325  1.00  0.00    -0.015 A 
ATOM     12  C   UNL     1     -27.118   9.078   6.913  1.00  0.00    +0.013 A 
ATOM     13  C   UNL     1     -30.501   7.730   7.795  1.00  0.00    +0.009 A 
ATOM     14  C   UNL     1     -29.821   9.840   6.770  1.00  0.00    -0.010 A 
ATOM     15  C   UNL     1     -27.444  10.323   6.365  1.00  0.00    -0.017 A 
ATOM     16  C   UNL     1     -31.846   8.090   7.733  1.00  0.00    +0.001 A 
ATOM     17  C   UNL     1     -31.202  10.168   6.724  1.00  0.00    +0.009 A 
ATOM     18  C   UNL     1     -28.796  10.725   6.283  1.00  0.00    -0.011 A 
ATOM     19  C   UNL     1     -26.416  11.161   5.899  1.00  0.00    +0.009 A 
ATOM     20  C   UNL     1     -32.198   9.312   7.196  1.00  0.00    +0.001 A 
ATOM     21  C   UNL     1     -29.040  12.003   5.712  1.00  0.00    +0.009 A 
ATOM     22  C   UNL     1     -26.694  12.406   5.345  1.00  0.00    +0.001 A 
ATOM     23  C   UNL     1     -28.009  12.830   5.251  1.00  0.00    +0.001 A 
ENDBRANCH   9  10
ENDBRANCH   8   9
ENDBRANCH   2   8
TORSDOF 4
ENDMDL
MODEL 3
REMARK VINA RESULT:   -10.016      0.874      3.809
REMARK INTER + INTRA:         -12.471
REMARK INTER:                 -12.072
REMARK INTRA:                  -0.398
REMARK UNBOUND:                -0.406
REMARK SMILES NNC(=O)CCc1cc2ccccc2c2ccccc12
REMARK SMILES IDX 2 1 3 2 4 3 1 5 5 8 6 9 7 10 20 11 8 12 19 13 15 14 9 15
REMARK SMILES IDX 18 16 16 17 14 18 10 19 17 20 13 21 11 22 12 23
REMARK H PARENT 2 4 1 6 1 7
ROOT
ATOM      1  N   UNL     1     -33.534   6.992   7.200  1.00  0.00    -0.294 N 
ATOM      2  C   UNL     1     -32.481   7.897   7.297  1.00  0.00    +0.234 C 
ATOM      3  O   UNL     1     -32.617   9.039   7.724  1.00  0.00    -0.274 OA
ATOM      4  H   UNL     1     -33.361   6.016   6.973  1.00  0.00    +0.184 HD
ENDROOT
BRANCH   1   5
ATOM      5  N   UNL     1     -34.807   7.359   7.686  1.00  0.00    -0.248 NA
ATOM      6  H   UNL     1     -35.200   8.040   7.029  1.00  0.00    +0.143 HD
ATOM      7  H   UNL     1     -34.654   7.921   8.534  1.00  0.00    +0.143 HD
ENDBRANCH   1   5
BRANCH   2   8
ATOM      8  C   UNL     1     -31.167   7.315   6.818  1.00  0.00    +0.106 C 
BRANCH   8   9
ATOM      9  C   UNL     1     -30.001   7.768   7.701  1.00  0.00    +0.046 C 
BRANCH   9  10
ATOM     10  C   UNL     1     -29.021   8.783   7.121  1.00  0.00    -0.039 A 
ATOM     11  C   UNL     1     -27.643   8.452   6.984  1.00  0.00    -0.015 A 
ATOM     12  C   UNL     1     -29.458  10.051   6.715  1.00  0.00    +0.013 A 
ATOM     13  C   UNL     1     -27.136   7.187   7.376  1.00  0.00    +0.009 A 
ATOM     14  C   UNL     1     -26.735   9.407   6.442  1.00  0.00    -0.010 A 
ATOM     15  C   UNL     1     -28.586  11.004   6.179  1.00  0.00    -0.017 A 
ATOM     16  C   UNL     1     -25.790   6.848   7.249  1.00  0.00    +0.001 A 
ATOM     17  C   UNL     1     -25.372   9.023   6.330  1.00  0.00    +0.009 A 
ATOM     18  C   UNL     1     -27.214  10.702   6.033  1.00  0.00    -0.011 A 
ATOM     19  C   UNL     1     -29.090  12.259   5.791  1.00  0.00    +0.009 A 
ATOM     20  C   UNL     1     -24.905   7.769   6.724  1.00  0.00    +0.001 A 
ATOM     21  C   UNL     1     -26.397  11.725   5.481  1.00  0.00    +0.009 A 
ATOM     22  C   UNL     1     -28.258  13.236   5.254  1.00  0.00    +0.001 A 
ATOM     23  C   UNL     1     -26.909  12.970   5.098  1.00  0.00    +0.001 A 
ENDBRANCH   9  10
ENDBRANCH   8   9
ENDBRANCH   2   8
TORSDOF 4
ENDMDL
MODEL 4
REMARK VINA RESULT:    -9.768      3.166      5.122
REMARK INTER + INTRA:         -12.172
REMARK INTER:                 -11.877
REMARK INTRA:                  -0.295
REMARK UNBOUND:                -0.406
REMARK SMILES NNC(=O)CCc1cc2ccccc2c2ccccc12
REMARK SMILES IDX 2 1 3 2 4 3 1 5 5 8 6 9 7 10 20 11 8 12 19 13 15 14 9 15
REMARK SMILES IDX 18 16 16 17 14 18 10 19 17 20 13 21 11 22 12 23
REMARK H PARENT 2 4 1 6 1 7
ROOT
ATOM      1  N   UNL     1     -26.712   5.344   8.579  1.00  0.00    -0.294 N 
ATOM      2  C   UNL     1     -25.621   6.073   8.118  1.00  0.00    +0.234 C 
ATOM      3  O   UNL     1     -24.608   6.258   8.786  1.00  0.00    -0.274 OA
ATOM      4  H   UNL     1     -27.474   5.096   7.952  1.00  0.00    +0.184 HD
ENDROOT
BRANCH   1   5
ATOM      5  N   UNL     1     -26.638   4.711   9.838  1.00  0.00    -0.248 NA
ATOM      6  H   UNL     1     -25.689   4.856  10.197  1.00  0.00    +0.143 HD
ATOM      7  H   UNL     1     -26.665   3.696   9.665  1.00  0.00    +0.143 HD
ENDBRANCH   1   5
BRANCH   2   8
ATOM      8  C   UNL     1     -25.827   6.608   6.715  1.00  0.00    +0.106 C 
BRANCH   8   9
ATOM      9  C   UNL     1     -25.941   8.134   6.711  1.00  0.00    +0.046 C 
BRANCH   9  10
ATOM     10  C   UNL     1     -27.338   8.745   6.748  1.00  0.00    -0.039 A 
ATOM     11  C   UNL     1     -27.553  10.073   6.284  1.00  0.00    -0.015 A 
ATOM     12  C   UNL     1     -28.428   8.012   7.237  1.00  0.00    +0.013 A 
ATOM     13  C   UNL     1     -26.493  10.868   5.778  1.00  0.00    +0.009 A 
ATOM     14  C   UNL     1     -28.862  10.635   6.323  1.00  0.00    -0.010 A 
ATOM     15  C   UNL     1     -29.722   8.542   7.284  1.00  0.00    -0.017 A 
ATOM     16  C   UNL     1     -26.688  12.170   5.320  1.00  0.00    +0.001 A 
ATOM     17  C   UNL     1     -29.018  11.964   5.849  1.00  0.00    +0.009 A 
ATOM     18  C   UNL     1     -29.962   9.858   6.831  1.00  0.00    -0.011 A 
ATOM     19  C   UNL     1     -30.772   7.752   7.787  1.00  0.00    +0.009 A 
ATOM     20  C   UNL     1     -27.954  12.720   5.355  1.00  0.00    +0.001 A 
ATOM     21  C   UNL     1     -31.304  10.318   6.914  1.00  0.00    +0.009 A 
ATOM     22  C   UNL     1     -32.073   8.239   7.854  1.00  0.00    +0.001 A 
ATOM     23  C   UNL     1     -32.341   9.525   7.416  1.00  0.00    +0.001 A 
ENDBRANCH   9  10
ENDBRANCH   8   9
ENDBRANCH   2   8
TORSDOF 4
ENDMDL
MODEL 5
REMARK VINA RESULT:    -9.224      1.640      2.105
REMARK INTER + INTRA:         -11.517
REMARK INTER:                 -11.225
REMARK INTRA:                  -0.292
REMARK UNBOUND:                -0.406
REMARK SMILES NNC(=O)CCc1cc2ccccc2c2ccccc12
REMARK SMILES IDX 2 1 3 2 4 3 1 5 5 8 6 9 7 10 20 11 8 12 19 13 15 14 9 15
REMARK SMILES IDX 18 16 16 17 14 18 10 19 17 20 13 21 11 22 12 23
REMARK H PARENT 2 4 1 6 1 7
ROOT
ATOM      1  N   UNL     1     -32.837   4.689   9.811  1.00  0.00    -0.294 N 
ATOM      2  C   UNL     1     -32.593   5.486   8.697  1.00  0.00    +0.234 C 
ATOM      3  O   UNL     1     -33.410   5.646   7.796  1.00  0.00    -0.274 OA
ATOM      4  H   UNL     1     -32.195   4.688  10.600  1.00  0.00    +0.184 HD
ENDROOT
BRANCH   1   5
ATOM      5  N   UNL     1     -34.107   4.096   9.971  1.00  0.00    -0.248 NA
ATOM      6  H   UNL     1     -34.485   4.421  10.867  1.00  0.00    +0.143 HD
ATOM      7  H   UNL     1     -33.952   3.093  10.139  1.00  0.00    +0.143 HD
ENDBRANCH   1   5
BRANCH   2   8
ATOM      8  C   UNL     1     -31.217   6.120   8.724  1.00  0.00    +0.106 C 
BRANCH   8   9
ATOM      9  C   UNL     1     -31.212   7.473   8.009  1.00  0.00    +0.046 C 
BRANCH   9  10
ATOM     10  C   UNL     1     -29.865   8.054   7.591  1.00  0.00    -0.039 A 
ATOM     11  C   UNL     1     -29.783   9.379   7.079  1.00  0.00    -0.015 A 
ATOM     12  C   UNL     1     -28.691   7.296   7.705  1.00  0.00    +0.013 A 
ATOM     13  C   UNL     1     -30.932  10.198   6.937  1.00  0.00    +0.009 A 
ATOM     14  C   UNL     1     -28.519   9.913   6.691  1.00  0.00    -0.010 A 
ATOM     15  C   UNL     1     -27.441   7.798   7.332  1.00  0.00    -0.017 A 
ATOM     16  C   UNL     1     -30.868  11.497   6.437  1.00  0.00    +0.001 A 
ATOM     17  C   UNL     1     -28.497  11.239   6.185  1.00  0.00    +0.009 A 
ATOM     18  C   UNL     1     -27.331   9.110   6.819  1.00  0.00    -0.011 A 
ATOM     19  C   UNL     1     -26.302   6.984   7.471  1.00  0.00    +0.009 A 
ATOM     20  C   UNL     1     -29.646  12.020   6.060  1.00  0.00    +0.001 A 
ATOM     21  C   UNL     1     -26.025   9.541   6.464  1.00  0.00    +0.009 A 
ATOM     22  C   UNL     1     -25.038   7.443   7.112  1.00  0.00    +0.001 A 
ATOM     23  C   UNL     1     -24.898   8.724   6.607  1.00  0.00    +0.001 A 
ENDBRANCH   9  10
ENDBRANCH   8   9
ENDBRANCH   2   8
TORSDOF 4
ENDMDL
MODEL 6
REMARK VINA RESULT:    -9.058      5.159      9.718
REMARK INTER + INTRA:         -11.318
REMARK INTER:                 -10.909
REMARK INTRA:                  -0.409
REMARK UNBOUND:                -0.406
REMARK SMILES NNC(=O)CCc1cc2ccccc2c2ccccc12
REMARK SMILES IDX 2 1 3 2 4 3 1 5 5 8 6 9 7 10 20 11 8 12 19 13 15 14 9 15
REMARK SMILES IDX 18 16 16 17 14 18 10 19 17 20 13 21 11 22 12 23
REMARK H PARENT 2 4 1 6 1 7
ROOT
ATOM      1  N   UNL     1     -33.275   8.907   7.710  1.00  0.00    -0.294 N 
ATOM      2  C   UNL     1     -32.577   8.074   6.841  1.00  0.00    +0.234 C 
ATOM      3  O   UNL     1     -31.516   8.394   6.315  1.00  0.00    -0.274 OA
ATOM      4  H   UNL     1     -34.077   8.559   8.232  1.00  0.00    +0.184 HD
ENDROOT
BRANCH   1   5
ATOM      5  N   UNL     1     -32.712  10.146   8.082  1.00  0.00    -0.248 NA
ATOM      6  H   UNL     1     -32.948  10.305   9.066  1.00  0.00    +0.143 HD
ATOM      7  H   UNL     1     -33.250  10.878   7.597  1.00  0.00    +0.143 HD
ENDBRANCH   1   5
BRANCH   2   8
ATOM      8  C   UNL     1     -33.274   6.747   6.620  1.00  0.00    +0.106 C 
BRANCH   8   9
ATOM      9  C   UNL     1     -32.934   5.747   7.727  1.00  0.00    +0.046 C 
BRANCH   9  10
ATOM     10  C   UNL     1     -34.083   5.191   8.563  1.00  0.00    -0.039 A 
ATOM     11  C   UNL     1     -33.874   4.068   9.412  1.00  0.00    -0.015 A 
ATOM     12  C   UNL     1     -35.356   5.775   8.509  1.00  0.00    +0.013 A 
ATOM     13  C   UNL     1     -32.611   3.431   9.512  1.00  0.00    +0.009 A 
ATOM     14  C   UNL     1     -34.954   3.555  10.188  1.00  0.00    -0.010 A 
ATOM     15  C   UNL     1     -36.430   5.290   9.262  1.00  0.00    -0.017 A 
ATOM     16  C   UNL     1     -32.391   2.331  10.338  1.00  0.00    +0.001 A 
ATOM     17  C   UNL     1     -34.689   2.433  11.016  1.00  0.00    +0.009 A 
ATOM     18  C   UNL     1     -36.251   4.176  10.112  1.00  0.00    -0.011 A 
ATOM     19  C   UNL     1     -37.683   5.922   9.161  1.00  0.00    +0.009 A 
ATOM     20  C   UNL     1     -33.434   1.830  11.093  1.00  0.00    +0.001 A 
ATOM     21  C   UNL     1     -37.393   3.748  10.840  1.00  0.00    +0.009 A 
ATOM     22  C   UNL     1     -38.779   5.473   9.891  1.00  0.00    +0.001 A 
ATOM     23  C   UNL     1     -38.635   4.384  10.733  1.00  0.00    +0.001 A 
ENDBRANCH   9  10
ENDBRANCH   8   9
ENDBRANCH   2   8
TORSDOF 4
ENDMDL
MODEL 7
REMARK VINA RESULT:    -8.918      5.206      8.890
REMARK INTER + INTRA:         -11.149
REMARK INTER:                 -10.739
REMARK INTRA:                  -0.410
REMARK UNBOUND:                -0.406
REMARK SMILES NNC(=O)CCc1cc2ccccc2c2ccccc12
REMARK SMILES IDX 2 1 3 2 4 3 1 5 5 8 6 9 7 10 20 11 8 12 19 13 15 14 9 15
REMARK SMILES IDX 18 16 16 17 14 18 10 19 17 20 13 21 11 22 12 23
REMARK H PARENT 2 4 1 6 1 7
ROOT
ATOM      1  N   UNL     1     -33.313   8.728   7.656  1.00  0.00    -0.294 N 
ATOM      2  C   UNL     1     -32.614   7.958   6.732  1.00  0.00    +0.234 C 
ATOM      3  O   UNL     1     -31.617   8.361   6.142  1.00  0.00    -0.274 OA
ATOM      4  H   UNL     1     -34.050   8.317   8.224  1.00  0.00    +0.184 HD
ENDROOT
BRANCH   1   5
ATOM      5  N   UNL     1     -32.820  10.004   8.005  1.00  0.00    -0.248 NA
ATOM      6  H   UNL     1     -32.944  10.112   9.017  1.00  0.00    +0.143 HD
ATOM      7  H   UNL     1     -33.477  10.696   7.620  1.00  0.00    +0.143 HD
ENDBRANCH   1   5
BRANCH   2   8
ATOM      8  C   UNL     1     -33.223   6.584   6.540  1.00  0.00    +0.106 C 
BRANCH   8   9
ATOM      9  C   UNL     1     -34.481   6.406   7.393  1.00  0.00    +0.046 C 
BRANCH   9  10
ATOM     10  C   UNL     1     -34.472   5.312   8.456  1.00  0.00    -0.039 A 
ATOM     11  C   UNL     1     -35.624   5.085   9.260  1.00  0.00    -0.015 A 
ATOM     12  C   UNL     1     -33.335   4.517   8.657  1.00  0.00    +0.013 A 
ATOM     13  C   UNL     1     -36.805   5.854   9.108  1.00  0.00    +0.009 A 
ATOM     14  C   UNL     1     -35.607   4.061  10.251  1.00  0.00    -0.010 A 
ATOM     15  C   UNL     1     -33.295   3.506   9.623  1.00  0.00    -0.017 A 
ATOM     16  C   UNL     1     -37.941   5.644   9.888  1.00  0.00    +0.001 A 
ATOM     17  C   UNL     1     -36.783   3.879  11.025  1.00  0.00    +0.009 A 
ATOM     18  C   UNL     1     -34.424   3.260  10.435  1.00  0.00    -0.011 A 
ATOM     19  C   UNL     1     -32.122   2.744   9.774  1.00  0.00    +0.009 A 
ATOM     20  C   UNL     1     -37.930   4.652  10.849  1.00  0.00    +0.001 A 
ATOM     21  C   UNL     1     -34.299   2.216  11.390  1.00  0.00    +0.009 A 
ATOM     22  C   UNL     1     -32.037   1.729  10.721  1.00  0.00    +0.001 A 
ATOM     23  C   UNL     1     -33.128   1.463  11.532  1.00  0.00    +0.001 A 
ENDBRANCH   9  10
ENDBRANCH   8   9
ENDBRANCH   2   8
TORSDOF 4
ENDMDL
MODEL 8
REMARK VINA RESULT:    -8.204      9.149     11.598
REMARK INTER + INTRA:         -10.288
REMARK INTER:                 -10.002
REMARK INTRA:                  -0.286
REMARK UNBOUND:                -0.406
REMARK SMILES NNC(=O)CCc1cc2ccccc2c2ccccc12
REMARK SMILES IDX 2 1 3 2 4 3 1 5 5 8 6 9 7 10 20 11 8 12 19 13 15 14 9 15
REMARK SMILES IDX 18 16 16 17 14 18 10 19 17 20 13 21 11 22 12 23
REMARK H PARENT 2 4 1 6 1 7
ROOT
ATOM      1  N   UNL     1     -24.092   1.031   9.160  1.00  0.00    -0.294 N 
ATOM      2  C   UNL     1     -24.675   1.732  10.211  1.00  0.00    +0.234 C 
ATOM      3  O   UNL     1     -24.023   2.346  11.050  1.00  0.00    -0.274 OA
ATOM      4  H   UNL     1     -24.663   0.651   8.409  1.00  0.00    +0.184 HD
ENDROOT
BRANCH   1   5
ATOM      5  N   UNL     1     -22.693   1.085   8.986  1.00  0.00    -0.248 NA
ATOM      6  H   UNL     1     -22.336   1.820   9.605  1.00  0.00    +0.143 HD
ATOM      7  H   UNL     1     -22.522   1.472   8.048  1.00  0.00    +0.143 HD
ENDBRANCH   1   5
BRANCH   2   8
ATOM      8  C   UNL     1     -26.188   1.648  10.200  1.00  0.00    +0.106 C 
BRANCH   8   9
ATOM      9  C   UNL     1     -26.761   1.715  11.618  1.00  0.00    +0.046 C 
BRANCH   9  10
ATOM     10  C   UNL     1     -28.259   1.488  11.792  1.00  0.00    -0.039 A 
ATOM     11  C   UNL     1     -28.763   0.917  12.995  1.00  0.00    -0.015 A 
ATOM     12  C   UNL     1     -29.160   1.836  10.776  1.00  0.00    +0.013 A 
ATOM     13  C   UNL     1     -27.905   0.542  14.060  1.00  0.00    +0.009 A 
ATOM     14  C   UNL     1     -30.164   0.709  13.149  1.00  0.00    -0.010 A 
ATOM     15  C   UNL     1     -30.539   1.642  10.905  1.00  0.00    -0.017 A 
ATOM     16  C   UNL     1     -28.383  -0.018  15.244  1.00  0.00    +0.001 A 
ATOM     17  C   UNL     1     -30.611   0.135  14.369  1.00  0.00    +0.009 A 
ATOM     18  C   UNL     1     -31.065   1.076  12.088  1.00  0.00    -0.011 A 
ATOM     19  C   UNL     1     -31.389   2.013   9.847  1.00  0.00    +0.009 A 
ATOM     20  C   UNL     1     -29.740  -0.222  15.399  1.00  0.00    +0.001 A 
ATOM     21  C   UNL     1     -32.476   0.913  12.136  1.00  0.00    +0.009 A 
ATOM     22  C   UNL     1     -32.766   1.837   9.931  1.00  0.00    +0.001 A 
ATOM     23  C   UNL     1     -33.312   1.286  11.078  1.00  0.00    +0.001 A 
ENDBRANCH   9  10
ENDBRANCH   8   9
ENDBRANCH   2   8
TORSDOF 4
ENDMDL
MODEL 9
REMARK VINA RESULT:    -7.946      7.245      9.402
REMARK INTER + INTRA:          -9.977
REMARK INTER:                  -9.550
REMARK INTRA:                  -0.428
REMARK UNBOUND:                -0.406
REMARK SMILES NNC(=O)CCc1cc2ccccc2c2ccccc12
REMARK SMILES IDX 2 1 3 2 4 3 1 5 5 8 6 9 7 10 20 11 8 12 19 13 15 14 9 15
REMARK SMILES IDX 18 16 16 17 14 18 10 19 17 20 13 21 11 22 12 23
REMARK H PARENT 2 4 1 6 1 7
ROOT
ATOM      1  N   UNL     1     -34.786   1.381   9.874  1.00  0.00    -0.294 N 
ATOM      2  C   UNL     1     -33.736   1.847  10.658  1.00  0.00    +0.234 C 
ATOM      3  O   UNL     1     -33.819   1.985  11.874  1.00  0.00    -0.274 OA
ATOM      4  H   UNL     1     -34.640   1.148   8.894  1.00  0.00    +0.184 HD
ENDROOT
BRANCH   1   5
ATOM      5  N   UNL     1     -35.982   0.966  10.496  1.00  0.00    -0.248 NA
ATOM      6  H   UNL     1     -36.668   0.790   9.754  1.00  0.00    +0.143 HD
ATOM      7  H   UNL     1     -36.372   1.788  10.977  1.00  0.00    +0.143 HD
ENDBRANCH   1   5
BRANCH   2   8
ATOM      8  C   UNL     1     -32.496   2.161   9.845  1.00  0.00    +0.106 C 
BRANCH   8   9
ATOM      9  C   UNL     1     -31.403   1.114  10.069  1.00  0.00    +0.046 C 
BRANCH   9  10
ATOM     10  C   UNL     1     -30.114   1.564  10.751  1.00  0.00    -0.039 A 
ATOM     11  C   UNL     1     -29.888   1.265  12.125  1.00  0.00    -0.015 A 
ATOM     12  C   UNL     1     -29.137   2.274  10.041  1.00  0.00    +0.013 A 
ATOM     13  C   UNL     1     -30.836   0.551  12.900  1.00  0.00    +0.009 A 
ATOM     14  C   UNL     1     -28.682   1.690  12.753  1.00  0.00    -0.010 A 
ATOM     15  C   UNL     1     -27.945   2.700  10.636  1.00  0.00    -0.017 A 
ATOM     16  C   UNL     1     -30.629   0.251  14.245  1.00  0.00    +0.001 A 
ATOM     17  C   UNL     1     -28.509   1.366  14.125  1.00  0.00    +0.009 A 
ATOM     18  C   UNL     1     -27.696   2.418  11.998  1.00  0.00    -0.011 A 
ATOM     19  C   UNL     1     -27.006   3.410   9.866  1.00  0.00    +0.009 A 
ATOM     20  C   UNL     1     -29.462   0.659  14.860  1.00  0.00    +0.001 A 
ATOM     21  C   UNL     1     -26.463   2.887  12.523  1.00  0.00    +0.009 A 
ATOM     22  C   UNL     1     -25.808   3.854  10.418  1.00  0.00    +0.001 A 
ATOM     23  C   UNL     1     -25.535   3.592  11.749  1.00  0.00    +0.001 A 
ENDBRANCH   9  10
ENDBRANCH   8   9
ENDBRANCH   2   8
TORSDOF 4
ENDMDL
