REMARK SMILES O=S(=O)(O)c1ccc2ccc3ccccc3c2c1
REMARK SMILES IDX 2 1 1 2 3 3 4 4 5 6 18 7 6 8 17 9 7 10 16 11 8 12 15 13
REMARK SMILES IDX 11 14 9 15 14 16 12 17 10 18 13 19
REMARK H PARENT 4 5
ROOT
ATOM      1  S   UNL     1       3.797  -1.087   1.186  1.00  0.00    +0.294 S 
ATOM      2  O   UNL     1       3.560  -1.909   2.350  1.00  0.00    -0.194 OA
ATOM      3  O   UNL     1       4.989  -0.278   1.042  1.00  0.00    -0.194 OA
ENDROOT
BRANCH   1   4
ATOM      4  O   UNL     1       3.793  -2.046  -0.113  1.00  0.00    -0.282 OA
ATOM      5  H   UNL     1       4.646  -1.907  -0.578  1.00  0.00    +0.234 HD
ENDBRANCH   1   4
BRANCH   1   6
ATOM      6  C   UNL     1       2.386  -0.041   0.968  1.00  0.00    +0.095 A 
ATOM      7  C   UNL     1       1.191  -0.598   0.496  1.00  0.00    +0.032 A 
ATOM      8  C   UNL     1       2.486   1.319   1.233  1.00  0.00    +0.023 A 
ATOM      9  C   UNL     1       0.040   0.197   0.277  1.00  0.00    -0.009 A 
ATOM     10  C   UNL     1       1.370   2.125   1.027  1.00  0.00    +0.010 A 
ATOM     11  C   UNL     1      -1.217  -0.319  -0.204  1.00  0.00    -0.010 A 
ATOM     12  C   UNL     1       0.159   1.585   0.556  1.00  0.00    -0.018 A 
ATOM     13  C   UNL     1      -1.455  -1.682  -0.513  1.00  0.00    +0.009 A 
ATOM     14  C   UNL     1      -2.304   0.573  -0.389  1.00  0.00    -0.018 A 
ATOM     15  C   UNL     1      -0.935   2.431   0.362  1.00  0.00    +0.009 A 
ATOM     16  C   UNL     1      -2.693  -2.137  -0.979  1.00  0.00    +0.001 A 
ATOM     17  C   UNL     1      -3.543   0.104  -0.857  1.00  0.00    +0.009 A 
ATOM     18  C   UNL     1      -2.149   1.932  -0.103  1.00  0.00    +0.009 A 
ATOM     19  C   UNL     1      -3.738  -1.243  -1.151  1.00  0.00    +0.001 A 
ENDBRANCH   1   6
TORSDOF 2
