MODEL 1
REMARK VINA RESULT:   -10.101      0.000      0.000
REMARK INTER + INTRA:         -11.604
REMARK INTER:                 -11.282
REMARK INTRA:                  -0.323
REMARK UNBOUND:                -0.323
REMARK SMILES O=C1C(Cl)=C(Oc2ccccc2)C(=O)c2ccccc21
REMARK SMILES IDX 4 1 3 2 5 3 13 4 14 5 15 6 20 7 19 8 18 9 17 10 16 11 2 12
REMARK SMILES IDX 1 13 6 14 7 15 8 16 12 17 9 18 11 19 10 20
REMARK H PARENT
ROOT
ATOM      1 Cl   UNL     1     -29.313   7.029   8.084  1.00  0.00    -0.076 Cl
ATOM      2  C   UNL     1     -29.289   8.623   7.404  1.00  0.00    +0.135 C 
ATOM      3  C   UNL     1     -30.413   9.339   7.269  1.00  0.00    +0.197 C 
ATOM      4  C   UNL     1     -30.360  10.732   6.738  1.00  0.00    +0.230 C 
ATOM      5  O   UNL     1     -31.337  11.473   6.751  1.00  0.00    -0.285 OA
ATOM      6  C   UNL     1     -29.075  11.223   6.207  1.00  0.00    +0.037 A 
ATOM      7  C   UNL     1     -27.922  10.453   6.316  1.00  0.00    +0.035 A 
ATOM      8  C   UNL     1     -26.706  10.940   5.817  1.00  0.00    +0.013 A 
ATOM      9  C   UNL     1     -26.651  12.196   5.209  1.00  0.00    +0.001 A 
ATOM     10  C   UNL     1     -27.806  12.969   5.101  1.00  0.00    +0.001 A 
ATOM     11  C   UNL     1     -29.017  12.486   5.599  1.00  0.00    +0.013 A 
ATOM     12  C   UNL     1     -27.965   9.127   6.959  1.00  0.00    +0.209 C 
ATOM     13  O   UNL     1     -26.932   8.482   7.095  1.00  0.00    -0.287 OA
ENDROOT
BRANCH   3  14
ATOM     14  O   UNL     1     -31.642   8.846   7.703  1.00  0.00    -0.451 OA
BRANCH  14  15
ATOM     15  C   UNL     1     -32.274   7.965   6.856  1.00  0.00    +0.127 A 
ATOM     16  C   UNL     1     -33.032   6.944   7.429  1.00  0.00    +0.047 A 
ATOM     17  C   UNL     1     -32.115   8.033   5.470  1.00  0.00    +0.047 A 
ATOM     18  C   UNL     1     -33.666   6.008   6.612  1.00  0.00    +0.004 A 
ATOM     19  C   UNL     1     -32.748   7.094   4.655  1.00  0.00    +0.004 A 
ATOM     20  C   UNL     1     -33.526   6.086   5.226  1.00  0.00    +0.000 A 
ENDBRANCH  14  15
ENDBRANCH   3  14
TORSDOF 2
ENDMDL
MODEL 2
REMARK VINA RESULT:    -8.480      4.159      6.736
REMARK INTER + INTRA:          -9.794
REMARK INTER:                  -9.429
REMARK INTRA:                  -0.365
REMARK UNBOUND:                -0.323
REMARK SMILES O=C1C(Cl)=C(Oc2ccccc2)C(=O)c2ccccc21
REMARK SMILES IDX 4 1 3 2 5 3 13 4 14 5 15 6 20 7 19 8 18 9 17 10 16 11 2 12
REMARK SMILES IDX 1 13 6 14 7 15 8 16 12 17 9 18 11 19 10 20
REMARK H PARENT
ROOT
ATOM      1 Cl   UNL     1     -35.714   3.216   6.944  1.00  0.00    -0.076 Cl
ATOM      2  C   UNL     1     -34.452   4.359   7.267  1.00  0.00    +0.135 C 
ATOM      3  C   UNL     1     -33.962   4.524   8.503  1.00  0.00    +0.197 C 
ATOM      4  C   UNL     1     -32.835   5.470   8.746  1.00  0.00    +0.230 C 
ATOM      5  O   UNL     1     -32.253   5.530   9.824  1.00  0.00    -0.285 OA
ATOM      6  C   UNL     1     -32.403   6.336   7.634  1.00  0.00    +0.037 A 
ATOM      7  C   UNL     1     -32.949   6.183   6.363  1.00  0.00    +0.035 A 
ATOM      8  C   UNL     1     -32.519   7.007   5.313  1.00  0.00    +0.013 A 
ATOM      9  C   UNL     1     -31.545   7.981   5.541  1.00  0.00    +0.001 A 
ATOM     10  C   UNL     1     -30.997   8.134   6.813  1.00  0.00    +0.001 A 
ATOM     11  C   UNL     1     -31.422   7.313   7.859  1.00  0.00    +0.013 A 
ATOM     12  C   UNL     1     -33.975   5.156   6.108  1.00  0.00    +0.209 C 
ATOM     13  O   UNL     1     -34.410   4.998   4.973  1.00  0.00    -0.287 OA
ENDROOT
BRANCH   3  14
ATOM     14  O   UNL     1     -34.421   3.758   9.572  1.00  0.00    -0.451 OA
BRANCH  14  15
ATOM     15  C   UNL     1     -35.592   4.178  10.159  1.00  0.00    +0.127 A 
ATOM     16  C   UNL     1     -36.605   3.235  10.333  1.00  0.00    +0.047 A 
ATOM     17  C   UNL     1     -35.802   5.513  10.511  1.00  0.00    +0.047 A 
ATOM     18  C   UNL     1     -37.822   3.621  10.895  1.00  0.00    +0.004 A 
ATOM     19  C   UNL     1     -37.021   5.897  11.071  1.00  0.00    +0.004 A 
ATOM     20  C   UNL     1     -38.028   4.951  11.266  1.00  0.00    +0.000 A 
ENDBRANCH  14  15
ENDBRANCH   3  14
TORSDOF 2
ENDMDL
MODEL 3
REMARK VINA RESULT:    -8.284      3.764      5.896
REMARK INTER + INTRA:          -9.576
REMARK INTER:                  -9.438
REMARK INTRA:                  -0.138
REMARK UNBOUND:                -0.323
REMARK SMILES O=C1C(Cl)=C(Oc2ccccc2)C(=O)c2ccccc21
REMARK SMILES IDX 4 1 3 2 5 3 13 4 14 5 15 6 20 7 19 8 18 9 17 10 16 11 2 12
REMARK SMILES IDX 1 13 6 14 7 15 8 16 12 17 9 18 11 19 10 20
REMARK H PARENT
ROOT
ATOM      1 Cl   UNL     1     -32.515   3.045   9.775  1.00  0.00    -0.076 Cl
ATOM      2  C   UNL     1     -32.654   4.541   8.912  1.00  0.00    +0.135 C 
ATOM      3  C   UNL     1     -33.822   4.937   8.389  1.00  0.00    +0.197 C 
ATOM      4  C   UNL     1     -33.931   6.257   7.703  1.00  0.00    +0.230 C 
ATOM      5  O   UNL     1     -35.010   6.725   7.356  1.00  0.00    -0.285 OA
ATOM      6  C   UNL     1     -32.692   7.020   7.466  1.00  0.00    +0.037 A 
ATOM      7  C   UNL     1     -31.478   6.578   7.980  1.00  0.00    +0.035 A 
ATOM      8  C   UNL     1     -30.311   7.323   7.756  1.00  0.00    +0.013 A 
ATOM      9  C   UNL     1     -30.366   8.506   7.017  1.00  0.00    +0.001 A 
ATOM     10  C   UNL     1     -31.583   8.950   6.503  1.00  0.00    +0.001 A 
ATOM     11  C   UNL     1     -32.746   8.212   6.727  1.00  0.00    +0.013 A 
ATOM     12  C   UNL     1     -31.405   5.333   8.766  1.00  0.00    +0.209 C 
ATOM     13  O   UNL     1     -30.338   4.982   9.256  1.00  0.00    -0.287 OA
ENDROOT
BRANCH   3  14
ATOM     14  O   UNL     1     -34.979   4.179   8.548  1.00  0.00    -0.451 OA
BRANCH  14  15
ATOM     15  C   UNL     1     -35.898   4.658   9.453  1.00  0.00    +0.127 A 
ATOM     16  C   UNL     1     -37.245   4.621   9.092  1.00  0.00    +0.047 A 
ATOM     17  C   UNL     1     -35.507   5.230  10.666  1.00  0.00    +0.047 A 
ATOM     18  C   UNL     1     -38.210   5.124   9.964  1.00  0.00    +0.004 A 
ATOM     19  C   UNL     1     -36.475   5.735  11.535  1.00  0.00    +0.004 A 
ATOM     20  C   UNL     1     -37.825   5.679  11.185  1.00  0.00    +0.000 A 
ENDBRANCH  14  15
ENDBRANCH   3  14
TORSDOF 2
ENDMDL
MODEL 4
REMARK VINA RESULT:    -8.267      9.884     11.007
REMARK INTER + INTRA:          -9.557
REMARK INTER:                  -9.374
REMARK INTRA:                  -0.183
REMARK UNBOUND:                -0.323
REMARK SMILES O=C1C(Cl)=C(Oc2ccccc2)C(=O)c2ccccc21
REMARK SMILES IDX 4 1 3 2 5 3 13 4 14 5 15 6 20 7 19 8 18 9 17 10 16 11 2 12
REMARK SMILES IDX 1 13 6 14 7 15 8 16 12 17 9 18 11 19 10 20
REMARK H PARENT
ROOT
ATOM      1 Cl   UNL     1     -28.382  -1.125  10.655  1.00  0.00    -0.076 Cl
ATOM      2  C   UNL     1     -26.997  -0.096  10.821  1.00  0.00    +0.135 C 
ATOM      3  C   UNL     1     -27.129   1.210  11.090  1.00  0.00    +0.197 C 
ATOM      4  C   UNL     1     -25.922   2.064  11.289  1.00  0.00    +0.230 C 
ATOM      5  O   UNL     1     -25.998   3.218  11.694  1.00  0.00    -0.285 OA
ATOM      6  C   UNL     1     -24.601   1.473  11.007  1.00  0.00    +0.037 A 
ATOM      7  C   UNL     1     -24.481   0.124  10.688  1.00  0.00    +0.035 A 
ATOM      8  C   UNL     1     -23.215  -0.424  10.435  1.00  0.00    +0.013 A 
ATOM      9  C   UNL     1     -22.076   0.381  10.501  1.00  0.00    +0.001 A 
ATOM     10  C   UNL     1     -22.197   1.732  10.822  1.00  0.00    +0.001 A 
ATOM     11  C   UNL     1     -23.455   2.279  11.076  1.00  0.00    +0.013 A 
ATOM     12  C   UNL     1     -25.674  -0.739  10.619  1.00  0.00    +0.209 C 
ATOM     13  O   UNL     1     -25.548  -1.935  10.388  1.00  0.00    -0.287 OA
ENDROOT
BRANCH   3  14
ATOM     14  O   UNL     1     -28.382   1.786  11.283  1.00  0.00    -0.451 OA
BRANCH  14  15
ATOM     15  C   UNL     1     -29.034   1.445  12.446  1.00  0.00    +0.127 A 
ATOM     16  C   UNL     1     -30.338   0.962  12.341  1.00  0.00    +0.047 A 
ATOM     17  C   UNL     1     -28.450   1.636  13.700  1.00  0.00    +0.047 A 
ATOM     18  C   UNL     1     -31.051   0.632  13.494  1.00  0.00    +0.004 A 
ATOM     19  C   UNL     1     -29.166   1.307  14.852  1.00  0.00    +0.004 A 
ATOM     20  C   UNL     1     -30.463   0.803  14.748  1.00  0.00    +0.000 A 
ENDBRANCH  14  15
ENDBRANCH   3  14
TORSDOF 2
ENDMDL
MODEL 5
REMARK VINA RESULT:    -8.233      4.635      8.996
REMARK INTER + INTRA:          -9.518
REMARK INTER:                  -9.492
REMARK INTRA:                  -0.026
REMARK UNBOUND:                -0.323
REMARK SMILES O=C1C(Cl)=C(Oc2ccccc2)C(=O)c2ccccc21
REMARK SMILES IDX 4 1 3 2 5 3 13 4 14 5 15 6 20 7 19 8 18 9 17 10 16 11 2 12
REMARK SMILES IDX 1 13 6 14 7 15 8 16 12 17 9 18 11 19 10 20
REMARK H PARENT
ROOT
ATOM      1 Cl   UNL     1     -31.940   3.274   9.188  1.00  0.00    -0.076 Cl
ATOM      2  C   UNL     1     -33.614   3.619   9.475  1.00  0.00    +0.135 C 
ATOM      3  C   UNL     1     -34.104   4.857   9.327  1.00  0.00    +0.197 C 
ATOM      4  C   UNL     1     -35.560   5.119   9.521  1.00  0.00    +0.230 C 
ATOM      5  O   UNL     1     -36.073   6.196   9.239  1.00  0.00    -0.285 OA
ATOM      6  C   UNL     1     -36.398   4.025  10.045  1.00  0.00    +0.037 A 
ATOM      7  C   UNL     1     -35.867   2.753  10.233  1.00  0.00    +0.035 A 
ATOM      8  C   UNL     1     -36.681   1.720  10.721  1.00  0.00    +0.013 A 
ATOM      9  C   UNL     1     -38.022   1.967  11.020  1.00  0.00    +0.001 A 
ATOM     10  C   UNL     1     -38.554   3.242  10.831  1.00  0.00    +0.001 A 
ATOM     11  C   UNL     1     -37.747   4.270  10.343  1.00  0.00    +0.013 A 
ATOM     12  C   UNL     1     -34.454   2.476   9.917  1.00  0.00    +0.209 C 
ATOM     13  O   UNL     1     -34.013   1.339  10.039  1.00  0.00    -0.287 OA
ENDROOT
BRANCH   3  14
ATOM     14  O   UNL     1     -33.296   5.909   8.903  1.00  0.00    -0.451 OA
BRANCH  14  15
ATOM     15  C   UNL     1     -33.209   6.097   7.543  1.00  0.00    +0.127 A 
ATOM     16  C   UNL     1     -32.311   7.055   7.076  1.00  0.00    +0.047 A 
ATOM     17  C   UNL     1     -34.036   5.409   6.651  1.00  0.00    +0.047 A 
ATOM     18  C   UNL     1     -32.210   7.303   5.707  1.00  0.00    +0.004 A 
ATOM     19  C   UNL     1     -33.935   5.661   5.282  1.00  0.00    +0.004 A 
ATOM     20  C   UNL     1     -33.020   6.603   4.811  1.00  0.00    +0.000 A 
ENDBRANCH  14  15
ENDBRANCH   3  14
TORSDOF 2
ENDMDL
MODEL 6
REMARK VINA RESULT:    -8.217      9.590     11.181
REMARK INTER + INTRA:          -9.500
REMARK INTER:                  -9.145
REMARK INTRA:                  -0.355
REMARK UNBOUND:                -0.323
REMARK SMILES O=C1C(Cl)=C(Oc2ccccc2)C(=O)c2ccccc21
REMARK SMILES IDX 4 1 3 2 5 3 13 4 14 5 15 6 20 7 19 8 18 9 17 10 16 11 2 12
REMARK SMILES IDX 1 13 6 14 7 15 8 16 12 17 9 18 11 19 10 20
REMARK H PARENT
ROOT
ATOM      1 Cl   UNL     1     -26.045   3.966  11.703  1.00  0.00    -0.076 Cl
ATOM      2  C   UNL     1     -25.748   2.347  11.161  1.00  0.00    +0.135 C 
ATOM      3  C   UNL     1     -26.757   1.519  10.856  1.00  0.00    +0.197 C 
ATOM      4  C   UNL     1     -26.476   0.150  10.334  1.00  0.00    +0.230 C 
ATOM      5  O   UNL     1     -27.361  -0.574   9.893  1.00  0.00    -0.285 OA
ATOM      6  C   UNL     1     -25.078  -0.319  10.334  1.00  0.00    +0.037 A 
ATOM      7  C   UNL     1     -24.042   0.539  10.692  1.00  0.00    +0.035 A 
ATOM      8  C   UNL     1     -22.717   0.080  10.675  1.00  0.00    +0.013 A 
ATOM      9  C   UNL     1     -22.436  -1.236  10.300  1.00  0.00    +0.001 A 
ATOM     10  C   UNL     1     -23.473  -2.094   9.939  1.00  0.00    +0.001 A 
ATOM     11  C   UNL     1     -24.792  -1.639   9.954  1.00  0.00    +0.013 A 
ATOM     12  C   UNL     1     -24.324   1.931  11.086  1.00  0.00    +0.209 C 
ATOM     13  O   UNL     1     -23.399   2.689  11.349  1.00  0.00    -0.287 OA
ENDROOT
BRANCH   3  14
ATOM     14  O   UNL     1     -28.083   1.938  10.928  1.00  0.00    -0.451 OA
BRANCH  14  15
ATOM     15  C   UNL     1     -28.795   1.511  12.025  1.00  0.00    +0.127 A 
ATOM     16  C   UNL     1     -30.040   0.922  11.802  1.00  0.00    +0.047 A 
ATOM     17  C   UNL     1     -28.334   1.717  13.327  1.00  0.00    +0.047 A 
ATOM     18  C   UNL     1     -30.812   0.503  12.885  1.00  0.00    +0.004 A 
ATOM     19  C   UNL     1     -29.110   1.298  14.409  1.00  0.00    +0.004 A 
ATOM     20  C   UNL     1     -30.346   0.688  14.187  1.00  0.00    +0.000 A 
ENDBRANCH  14  15
ENDBRANCH   3  14
TORSDOF 2
ENDMDL
MODEL 7
REMARK VINA RESULT:    -8.164      9.792     10.964
REMARK INTER + INTRA:          -9.441
REMARK INTER:                  -9.257
REMARK INTRA:                  -0.184
REMARK UNBOUND:                -0.323
REMARK SMILES O=C1C(Cl)=C(Oc2ccccc2)C(=O)c2ccccc21
REMARK SMILES IDX 4 1 3 2 5 3 13 4 14 5 15 6 20 7 19 8 18 9 17 10 16 11 2 12
REMARK SMILES IDX 1 13 6 14 7 15 8 16 12 17 9 18 11 19 10 20
REMARK H PARENT
ROOT
ATOM      1 Cl   UNL     1     -28.720   1.695  13.447  1.00  0.00    -0.076 Cl
ATOM      2  C   UNL     1     -27.366   1.148  12.514  1.00  0.00    +0.135 C 
ATOM      3  C   UNL     1     -27.245  -0.136  12.150  1.00  0.00    +0.197 C 
ATOM      4  C   UNL     1     -26.103  -0.572  11.296  1.00  0.00    +0.230 C 
ATOM      5  O   UNL     1     -26.044  -1.696  10.810  1.00  0.00    -0.285 OA
ATOM      6  C   UNL     1     -25.033   0.403  11.017  1.00  0.00    +0.037 A 
ATOM      7  C   UNL     1     -25.151   1.724  11.436  1.00  0.00    +0.035 A 
ATOM      8  C   UNL     1     -24.129   2.642  11.152  1.00  0.00    +0.013 A 
ATOM      9  C   UNL     1     -22.993   2.231  10.451  1.00  0.00    +0.001 A 
ATOM     10  C   UNL     1     -22.875   0.907  10.031  1.00  0.00    +0.001 A 
ATOM     11  C   UNL     1     -23.892  -0.007  10.310  1.00  0.00    +0.013 A 
ATOM     12  C   UNL     1     -26.347   2.173  12.172  1.00  0.00    +0.209 C 
ATOM     13  O   UNL     1     -26.461   3.351  12.489  1.00  0.00    -0.287 OA
ENDROOT
BRANCH   3  14
ATOM     14  O   UNL     1     -28.220  -1.075  12.477  1.00  0.00    -0.451 OA
BRANCH  14  15
ATOM     15  C   UNL     1     -29.369  -1.046  11.720  1.00  0.00    +0.127 A 
ATOM     16  C   UNL     1     -30.547  -1.504  12.309  1.00  0.00    +0.047 A 
ATOM     17  C   UNL     1     -29.358  -0.642  10.383  1.00  0.00    +0.047 A 
ATOM     18  C   UNL     1     -31.730  -1.523  11.571  1.00  0.00    +0.004 A 
ATOM     19  C   UNL     1     -30.543  -0.664   9.646  1.00  0.00    +0.004 A 
ATOM     20  C   UNL     1     -31.727  -1.100  10.241  1.00  0.00    +0.000 A 
ENDBRANCH  14  15
ENDBRANCH   3  14
TORSDOF 2
ENDMDL
MODEL 8
REMARK VINA RESULT:    -8.003      4.671      7.500
REMARK INTER + INTRA:          -9.262
REMARK INTER:                  -9.089
REMARK INTRA:                  -0.173
REMARK UNBOUND:                -0.323
REMARK SMILES O=C1C(Cl)=C(Oc2ccccc2)C(=O)c2ccccc21
REMARK SMILES IDX 4 1 3 2 5 3 13 4 14 5 15 6 20 7 19 8 18 9 17 10 16 11 2 12
REMARK SMILES IDX 1 13 6 14 7 15 8 16 12 17 9 18 11 19 10 20
REMARK H PARENT
ROOT
ATOM      1 Cl   UNL     1     -33.281   3.433  10.954  1.00  0.00    -0.076 Cl
ATOM      2  C   UNL     1     -33.526   4.044   9.351  1.00  0.00    +0.135 C 
ATOM      3  C   UNL     1     -34.324   3.412   8.480  1.00  0.00    +0.197 C 
ATOM      4  C   UNL     1     -34.568   3.989   7.126  1.00  0.00    +0.230 C 
ATOM      5  O   UNL     1     -35.412   3.532   6.364  1.00  0.00    -0.285 OA
ATOM      6  C   UNL     1     -33.775   5.164   6.719  1.00  0.00    +0.037 A 
ATOM      7  C   UNL     1     -32.919   5.788   7.621  1.00  0.00    +0.035 A 
ATOM      8  C   UNL     1     -32.181   6.912   7.222  1.00  0.00    +0.013 A 
ATOM      9  C   UNL     1     -32.304   7.405   5.921  1.00  0.00    +0.001 A 
ATOM     10  C   UNL     1     -33.164   6.781   5.019  1.00  0.00    +0.001 A 
ATOM     11  C   UNL     1     -33.900   5.664   5.414  1.00  0.00    +0.013 A 
ATOM     12  C   UNL     1     -32.782   5.280   8.998  1.00  0.00    +0.209 C 
ATOM     13  O   UNL     1     -32.063   5.870   9.797  1.00  0.00    -0.287 OA
ENDROOT
BRANCH   3  14
ATOM     14  O   UNL     1     -35.017   2.258   8.838  1.00  0.00    -0.451 OA
BRANCH  14  15
ATOM     15  C   UNL     1     -36.153   2.443   9.592  1.00  0.00    +0.127 A 
ATOM     16  C   UNL     1     -36.563   1.396  10.417  1.00  0.00    +0.047 A 
ATOM     17  C   UNL     1     -36.922   3.606   9.492  1.00  0.00    +0.047 A 
ATOM     18  C   UNL     1     -37.726   1.524  11.175  1.00  0.00    +0.004 A 
ATOM     19  C   UNL     1     -38.086   3.731  10.250  1.00  0.00    +0.004 A 
ATOM     20  C   UNL     1     -38.485   2.693  11.093  1.00  0.00    +0.000 A 
ENDBRANCH  14  15
ENDBRANCH   3  14
TORSDOF 2
ENDMDL
MODEL 9
REMARK VINA RESULT:    -7.410     10.234     11.796
REMARK INTER + INTRA:          -8.599
REMARK INTER:                  -8.573
REMARK INTRA:                  -0.025
REMARK UNBOUND:                -0.323
REMARK SMILES O=C1C(Cl)=C(Oc2ccccc2)C(=O)c2ccccc21
REMARK SMILES IDX 4 1 3 2 5 3 13 4 14 5 15 6 20 7 19 8 18 9 17 10 16 11 2 12
REMARK SMILES IDX 1 13 6 14 7 15 8 16 12 17 9 18 11 19 10 20
REMARK H PARENT
ROOT
ATOM      1 Cl   UNL     1     -28.002   2.587  12.679  1.00  0.00    -0.076 Cl
ATOM      2  C   UNL     1     -26.742   1.616  11.991  1.00  0.00    +0.135 C 
ATOM      3  C   UNL     1     -26.929   0.316  11.731  1.00  0.00    +0.197 C 
ATOM      4  C   UNL     1     -25.850  -0.485  11.083  1.00  0.00    +0.230 C 
ATOM      5  O   UNL     1     -26.037  -1.629  10.683  1.00  0.00    -0.285 OA
ATOM      6  C   UNL     1     -24.529   0.145  10.905  1.00  0.00    +0.037 A 
ATOM      7  C   UNL     1     -24.336   1.487  11.217  1.00  0.00    +0.035 A 
ATOM      8  C   UNL     1     -23.077   2.075  11.030  1.00  0.00    +0.013 A 
ATOM      9  C   UNL     1     -22.016   1.315  10.532  1.00  0.00    +0.001 A 
ATOM     10  C   UNL     1     -22.210  -0.029  10.217  1.00  0.00    +0.001 A 
ATOM     11  C   UNL     1     -23.463  -0.615  10.401  1.00  0.00    +0.013 A 
ATOM     12  C   UNL     1     -25.448   2.302  11.740  1.00  0.00    +0.209 C 
ATOM     13  O   UNL     1     -25.277   3.495  11.962  1.00  0.00    -0.287 OA
ENDROOT
BRANCH   3  14
ATOM     14  O   UNL     1     -28.155  -0.301  11.969  1.00  0.00    -0.451 OA
BRANCH  14  15
ATOM     15  C   UNL     1     -28.510  -0.455  13.289  1.00  0.00    +0.127 A 
ATOM     16  C   UNL     1     -29.869  -0.541  13.590  1.00  0.00    +0.047 A 
ATOM     17  C   UNL     1     -27.558  -0.456  14.312  1.00  0.00    +0.047 A 
ATOM     18  C   UNL     1     -30.279  -0.666  14.917  1.00  0.00    +0.004 A 
ATOM     19  C   UNL     1     -27.971  -0.579  15.639  1.00  0.00    +0.004 A 
ATOM     20  C   UNL     1     -29.329  -0.688  15.941  1.00  0.00    +0.000 A 
ENDBRANCH  14  15
ENDBRANCH   3  14
TORSDOF 2
ENDMDL
