REMARK SMILES N=C(Nc1cc2ccccc2c2ccccc12)Nc1cc2ccccc2c2ccccc12
REMARK SMILES IDX 1 1 2 2 3 3 18 4 4 8 17 9 5 10 16 11 12 12 6 13 15 14 13 15
REMARK SMILES IDX 11 16 7 17 14 18 10 19 8 20 9 21 19 22 32 23 20 24 31 25
REMARK SMILES IDX 27 26 21 27 30 28 28 29 26 30 22 31 29 32 25 33 23 34 24 35
REMARK H PARENT 1 5 3 6 18 7
ROOT
ATOM      1  N   UNL     1       0.129   0.962   1.776  1.00  0.00    -0.269 NA
ATOM      2  C   UNL     1       0.051  -0.096   1.041  1.00  0.00    +0.197 C 
ATOM      3  N   UNL     1      -1.065  -0.596   0.422  1.00  0.00    -0.326 N 
ATOM      4  N   UNL     1       1.138  -0.898   0.815  1.00  0.00    -0.326 N 
ATOM      5  H   UNL     1       1.092   1.025   2.123  1.00  0.00    +0.191 HD
ATOM      6  H   UNL     1      -0.845  -1.001  -0.475  1.00  0.00    +0.170 HD
ATOM      7  H   UNL     1       0.926  -1.850   0.546  1.00  0.00    +0.170 HD
ENDROOT
BRANCH   3   8
ATOM      8  C   UNL     1      -2.412  -0.126   0.453  1.00  0.00    +0.049 A 
ATOM      9  C   UNL     1      -3.400  -0.724  -0.393  1.00  0.00    +0.006 A 
ATOM     10  C   UNL     1      -2.824   0.840   1.378  1.00  0.00    +0.035 A 
ATOM     11  C   UNL     1      -3.102  -1.791  -1.286  1.00  0.00    +0.011 A 
ATOM     12  C   UNL     1      -4.747  -0.250  -0.352  1.00  0.00    -0.008 A 
ATOM     13  C   UNL     1      -4.137   1.313   1.439  1.00  0.00    -0.016 A 
ATOM     14  C   UNL     1      -4.055  -2.357  -2.132  1.00  0.00    +0.001 A 
ATOM     15  C   UNL     1      -5.685  -0.849  -1.234  1.00  0.00    +0.009 A 
ATOM     16  C   UNL     1      -5.118   0.790   0.570  1.00  0.00    -0.010 A 
ATOM     17  C   UNL     1      -4.462   2.315   2.372  1.00  0.00    +0.009 A 
ATOM     18  C   UNL     1      -5.349  -1.879  -2.111  1.00  0.00    +0.001 A 
ATOM     19  C   UNL     1      -6.424   1.339   0.693  1.00  0.00    +0.009 A 
ATOM     20  C   UNL     1      -5.753   2.826   2.464  1.00  0.00    +0.001 A 
ATOM     21  C   UNL     1      -6.737   2.338   1.621  1.00  0.00    +0.001 A 
ENDBRANCH   3   8
BRANCH   4  22
ATOM     22  C   UNL     1       2.424  -0.486   0.368  1.00  0.00    +0.049 A 
ATOM     23  C   UNL     1       3.535  -1.367   0.472  1.00  0.00    +0.006 A 
ATOM     24  C   UNL     1       2.617   0.803  -0.144  1.00  0.00    +0.035 A 
ATOM     25  C   UNL     1       3.415  -2.656   1.052  1.00  0.00    +0.011 A 
ATOM     26  C   UNL     1       4.812  -0.949  -0.003  1.00  0.00    -0.008 A 
ATOM     27  C   UNL     1       3.861   1.238  -0.606  1.00  0.00    -0.016 A 
ATOM     28  C   UNL     1       4.492  -3.535   1.141  1.00  0.00    +0.001 A 
ATOM     29  C   UNL     1       5.881  -1.877   0.102  1.00  0.00    +0.009 A 
ATOM     30  C   UNL     1       4.976   0.371  -0.553  1.00  0.00    -0.010 A 
ATOM     31  C   UNL     1       3.984   2.539  -1.126  1.00  0.00    +0.009 A 
ATOM     32  C   UNL     1       5.726  -3.147   0.659  1.00  0.00    +0.001 A 
ATOM     33  C   UNL     1       6.200   0.890  -1.053  1.00  0.00    +0.009 A 
ATOM     34  C   UNL     1       5.202   3.011  -1.605  1.00  0.00    +0.001 A 
ATOM     35  C   UNL     1       6.313   2.184  -1.570  1.00  0.00    +0.001 A 
ENDBRANCH   4  22
TORSDOF 2
