MODEL 1
REMARK VINA RESULT:   -10.064      0.000      0.000
REMARK INTER + INTRA:         -13.480
REMARK INTER:                 -13.006
REMARK INTRA:                  -0.474
REMARK UNBOUND:                -0.474
REMARK SMILES CCc1cccc(CC)c1Nc1nc(C)nc2c1cnn2-c1ccccc1
REMARK SMILES IDX 3 1 10 2 7 3 6 4 5 5 4 6 2 7 1 8 11 9 12 11 18 12 13 13
REMARK SMILES IDX 19 14 17 15 14 16 20 17 21 18 16 19 15 20 22 21 23 22 27 23
REMARK SMILES IDX 24 24 26 25 25 26 8 27 9 28
REMARK H PARENT 11 10
ROOT
ATOM      1  C   UNL     1     -33.613   5.529   6.821  1.00  0.00    -0.024 A 
ATOM      2  C   UNL     1     -33.214   5.599   8.177  1.00  0.00    +0.046 A 
ATOM      3  C   UNL     1     -33.613   4.575   9.072  1.00  0.00    -0.024 A 
ATOM      4  C   UNL     1     -34.317   3.460   8.587  1.00  0.00    +0.006 A 
ATOM      5  C   UNL     1     -34.666   3.373   7.245  1.00  0.00    +0.001 A 
ATOM      6  C   UNL     1     -34.328   4.404   6.373  1.00  0.00    +0.006 A 
ENDROOT
BRANCH   1   7
ATOM      7  C   UNL     1     -33.360   6.636   5.818  1.00  0.00    +0.034 C 
ATOM      8  C   UNL     1     -34.338   6.589   4.652  1.00  0.00    +0.009 C 
ENDBRANCH   1   7
BRANCH   2   9
ATOM      9  N   UNL     1     -32.525   6.713   8.703  1.00  0.00    -0.339 N 
ATOM     10  H   UNL     1     -33.144   7.498   8.885  1.00  0.00    +0.168 HD
BRANCH   9  11
ATOM     11  C   UNL     1     -31.295   7.231   8.272  1.00  0.00    +0.145 A 
ATOM     12  C   UNL     1     -31.110   8.466   7.641  1.00  0.00    +0.082 A 
ATOM     13  N   UNL     1     -30.207   6.453   8.481  1.00  0.00    -0.215 NA
ATOM     14  C   UNL     1     -31.902   9.550   7.232  1.00  0.00    +0.150 A 
ATOM     15  C   UNL     1     -29.819   8.818   7.280  1.00  0.00    +0.168 A 
ATOM     16  C   UNL     1     -28.995   6.886   8.079  1.00  0.00    +0.130 A 
ATOM     17  N   UNL     1     -31.198  10.524   6.657  1.00  0.00    -0.174 NA
ATOM     18  N   UNL     1     -29.904  10.077   6.683  1.00  0.00    -0.215 N 
ATOM     19  N   UNL     1     -28.724   8.060   7.486  1.00  0.00    -0.213 NA
ATOM     20  C   UNL     1     -27.830   5.988   8.365  1.00  0.00    +0.090 C 
BRANCH  18  21
ATOM     21  C   UNL     1     -28.867  10.895   6.135  1.00  0.00    +0.067 A 
ATOM     22  C   UNL     1     -29.149  12.237   5.821  1.00  0.00    +0.028 A 
ATOM     23  C   UNL     1     -27.577  10.404   5.899  1.00  0.00    +0.028 A 
ATOM     24  C   UNL     1     -28.160  13.066   5.284  1.00  0.00    +0.002 A 
ATOM     25  C   UNL     1     -26.591  11.238   5.361  1.00  0.00    +0.002 A 
ATOM     26  C   UNL     1     -26.882  12.566   5.055  1.00  0.00    +0.000 A 
ENDBRANCH  18  21
ENDBRANCH   9  11
ENDBRANCH   2   9
BRANCH   3  27
ATOM     27  C   UNL     1     -33.278   4.623  10.547  1.00  0.00    +0.034 C 
ATOM     28  C   UNL     1     -34.517   4.772  11.417  1.00  0.00    +0.009 C 
ENDBRANCH   3  27
TORSDOF 5
ENDMDL
MODEL 2
REMARK VINA RESULT:    -9.977      4.541      8.784
REMARK INTER + INTRA:         -13.367
REMARK INTER:                 -12.491
REMARK INTRA:                  -0.876
REMARK UNBOUND:                -0.474
REMARK SMILES CCc1cccc(CC)c1Nc1nc(C)nc2c1cnn2-c1ccccc1
REMARK SMILES IDX 3 1 10 2 7 3 6 4 5 5 4 6 2 7 1 8 11 9 12 11 18 12 13 13
REMARK SMILES IDX 19 14 17 15 14 16 20 17 21 18 16 19 15 20 22 21 23 22 27 23
REMARK SMILES IDX 24 24 26 25 25 26 8 27 9 28
REMARK H PARENT 11 10
ROOT
ATOM      1  C   UNL     1     -27.923   2.813  10.442  1.00  0.00    -0.024 A 
ATOM      2  C   UNL     1     -29.105   2.116  10.789  1.00  0.00    +0.046 A 
ATOM      3  C   UNL     1     -29.145   1.374  11.996  1.00  0.00    -0.024 A 
ATOM      4  C   UNL     1     -28.051   1.416  12.876  1.00  0.00    +0.006 A 
ATOM      5  C   UNL     1     -26.911   2.141  12.554  1.00  0.00    +0.001 A 
ATOM      6  C   UNL     1     -26.843   2.823  11.343  1.00  0.00    +0.006 A 
ENDROOT
BRANCH   1   7
ATOM      7  C   UNL     1     -27.729   3.517   9.116  1.00  0.00    +0.034 C 
ATOM      8  C   UNL     1     -26.469   4.373   9.098  1.00  0.00    +0.009 C 
ENDBRANCH   1   7
BRANCH   2   9
ATOM      9  N   UNL     1     -30.214   2.035   9.920  1.00  0.00    -0.339 N 
ATOM     10  H   UNL     1     -29.946   1.770   8.976  1.00  0.00    +0.168 HD
BRANCH   9  11
ATOM     11  C   UNL     1     -31.283   2.938   9.823  1.00  0.00    +0.145 A 
ATOM     12  C   UNL     1     -32.578   2.718  10.305  1.00  0.00    +0.082 A 
ATOM     13  N   UNL     1     -31.027   4.111   9.197  1.00  0.00    -0.215 NA
ATOM     14  C   UNL     1     -33.276   1.705  10.980  1.00  0.00    +0.150 A 
ATOM     15  C   UNL     1     -33.515   3.723  10.119  1.00  0.00    +0.168 A 
ATOM     16  C   UNL     1     -32.015   5.018   9.058  1.00  0.00    +0.130 A 
ATOM     17  N   UNL     1     -34.549   2.014  11.217  1.00  0.00    -0.174 NA
ATOM     18  N   UNL     1     -34.706   3.266  10.685  1.00  0.00    -0.215 N 
ATOM     19  N   UNL     1     -33.275   4.899   9.504  1.00  0.00    -0.213 NA
ATOM     20  C   UNL     1     -31.656   6.305   8.379  1.00  0.00    +0.090 C 
BRANCH  18  21
ATOM     21  C   UNL     1     -35.979   3.911  10.768  1.00  0.00    +0.067 A 
ATOM     22  C   UNL     1     -37.139   3.175  10.466  1.00  0.00    +0.028 A 
ATOM     23  C   UNL     1     -36.111   5.255  11.140  1.00  0.00    +0.028 A 
ATOM     24  C   UNL     1     -38.400   3.772  10.536  1.00  0.00    +0.002 A 
ATOM     25  C   UNL     1     -37.376   5.848  11.208  1.00  0.00    +0.002 A 
ATOM     26  C   UNL     1     -38.518   5.108  10.907  1.00  0.00    +0.000 A 
ENDBRANCH  18  21
ENDBRANCH   9  11
ENDBRANCH   2   9
BRANCH   3  27
ATOM     27  C   UNL     1     -30.352   0.551  12.392  1.00  0.00    +0.034 C 
ATOM     28  C   UNL     1     -30.662   0.657  13.877  1.00  0.00    +0.009 C 
ENDBRANCH   3  27
TORSDOF 5
ENDMDL
MODEL 3
REMARK VINA RESULT:    -9.807      4.354      8.792
REMARK INTER + INTRA:         -13.148
REMARK INTER:                 -12.340
REMARK INTRA:                  -0.808
REMARK UNBOUND:                -0.474
REMARK SMILES CCc1cccc(CC)c1Nc1nc(C)nc2c1cnn2-c1ccccc1
REMARK SMILES IDX 3 1 10 2 7 3 6 4 5 5 4 6 2 7 1 8 11 9 12 11 18 12 13 13
REMARK SMILES IDX 19 14 17 15 14 16 20 17 21 18 16 19 15 20 22 21 23 22 27 23
REMARK SMILES IDX 24 24 26 25 25 26 8 27 9 28
REMARK H PARENT 11 10
ROOT
ATOM      1  C   UNL     1     -29.444   1.381  11.931  1.00  0.00    -0.024 A 
ATOM      2  C   UNL     1     -29.253   2.041  10.693  1.00  0.00    +0.046 A 
ATOM      3  C   UNL     1     -28.056   2.766  10.471  1.00  0.00    -0.024 A 
ATOM      4  C   UNL     1     -27.037   2.744  11.437  1.00  0.00    +0.006 A 
ATOM      5  C   UNL     1     -27.210   2.054  12.632  1.00  0.00    +0.001 A 
ATOM      6  C   UNL     1     -28.407   1.390  12.881  1.00  0.00    +0.006 A 
ENDROOT
BRANCH   1   7
ATOM      7  C   UNL     1     -30.739   0.700  12.322  1.00  0.00    +0.034 C 
ATOM      8  C   UNL     1     -30.817   0.430  13.819  1.00  0.00    +0.009 C 
ENDBRANCH   1   7
BRANCH   2   9
ATOM      9  N   UNL     1     -30.262   2.103   9.708  1.00  0.00    -0.339 N 
ATOM     10  H   UNL     1     -29.903   1.916   8.776  1.00  0.00    +0.168 HD
BRANCH   9  11
ATOM     11  C   UNL     1     -31.274   3.067   9.590  1.00  0.00    +0.145 A 
ATOM     12  C   UNL     1     -32.621   2.874   9.915  1.00  0.00    +0.082 A 
ATOM     13  N   UNL     1     -30.902   4.276   9.108  1.00  0.00    -0.215 NA
ATOM     14  C   UNL     1     -33.429   1.842  10.417  1.00  0.00    +0.150 A 
ATOM     15  C   UNL     1     -33.488   3.940   9.733  1.00  0.00    +0.168 A 
ATOM     16  C   UNL     1     -31.829   5.244   8.957  1.00  0.00    +0.130 A 
ATOM     17  N   UNL     1     -34.706   2.197  10.553  1.00  0.00    -0.174 NA
ATOM     18  N   UNL     1     -34.751   3.498  10.129  1.00  0.00    -0.215 N 
ATOM     19  N   UNL     1     -33.133   5.153   9.260  1.00  0.00    -0.213 NA
ATOM     20  C   UNL     1     -31.344   6.566   8.444  1.00  0.00    +0.090 C 
BRANCH  18  21
ATOM     21  C   UNL     1     -35.996   4.200  10.144  1.00  0.00    +0.067 A 
ATOM     22  C   UNL     1     -36.979   3.870   9.193  1.00  0.00    +0.028 A 
ATOM     23  C   UNL     1     -36.271   5.209  11.077  1.00  0.00    +0.028 A 
ATOM     24  C   UNL     1     -38.207   4.535   9.179  1.00  0.00    +0.002 A 
ATOM     25  C   UNL     1     -37.504   5.872  11.056  1.00  0.00    +0.002 A 
ATOM     26  C   UNL     1     -38.469   5.536  10.110  1.00  0.00    +0.000 A 
ENDBRANCH  18  21
ENDBRANCH   9  11
ENDBRANCH   2   9
BRANCH   3  27
ATOM     27  C   UNL     1     -27.817   3.551   9.198  1.00  0.00    +0.034 C 
ATOM     28  C   UNL     1     -26.435   4.183   9.159  1.00  0.00    +0.009 C 
ENDBRANCH   3  27
TORSDOF 5
ENDMDL
MODEL 4
REMARK VINA RESULT:    -9.502      1.659      3.194
REMARK INTER + INTRA:         -12.754
REMARK INTER:                 -11.849
REMARK INTRA:                  -0.905
REMARK UNBOUND:                -0.474
REMARK SMILES CCc1cccc(CC)c1Nc1nc(C)nc2c1cnn2-c1ccccc1
REMARK SMILES IDX 3 1 10 2 7 3 6 4 5 5 4 6 2 7 1 8 11 9 12 11 18 12 13 13
REMARK SMILES IDX 19 14 17 15 14 16 20 17 21 18 16 19 15 20 22 21 23 22 27 23
REMARK SMILES IDX 24 24 26 25 25 26 8 27 9 28
REMARK H PARENT 11 10
ROOT
ATOM      1  C   UNL     1     -34.140   5.522   6.685  1.00  0.00    -0.024 A 
ATOM      2  C   UNL     1     -33.625   5.818   7.970  1.00  0.00    +0.046 A 
ATOM      3  C   UNL     1     -33.653   4.821   8.976  1.00  0.00    -0.024 A 
ATOM      4  C   UNL     1     -34.100   3.527   8.663  1.00  0.00    +0.006 A 
ATOM      5  C   UNL     1     -34.560   3.227   7.387  1.00  0.00    +0.001 A 
ATOM      6  C   UNL     1     -34.592   4.219   6.411  1.00  0.00    +0.006 A 
ENDROOT
BRANCH   1   7
ATOM      7  C   UNL     1     -34.286   6.554   5.586  1.00  0.00    +0.034 C 
ATOM      8  C   UNL     1     -33.033   6.659   4.726  1.00  0.00    +0.009 C 
ENDBRANCH   1   7
BRANCH   2   9
ATOM      9  N   UNL     1     -33.188   7.112   8.326  1.00  0.00    -0.339 N 
ATOM     10  H   UNL     1     -33.947   7.787   8.338  1.00  0.00    +0.168 HD
BRANCH   9  11
ATOM     11  C   UNL     1     -32.037   7.773   7.872  1.00  0.00    +0.145 A 
ATOM     12  C   UNL     1     -30.728   7.292   7.981  1.00  0.00    +0.082 A 
ATOM     13  N   UNL     1     -32.225   8.982   7.292  1.00  0.00    -0.215 NA
ATOM     14  C   UNL     1     -30.079   6.154   8.485  1.00  0.00    +0.150 A 
ATOM     15  C   UNL     1     -29.706   8.082   7.477  1.00  0.00    +0.168 A 
ATOM     16  C   UNL     1     -31.159   9.677   6.845  1.00  0.00    +0.130 A 
ATOM     17  N   UNL     1     -28.757   6.191   8.327  1.00  0.00    -0.174 NA
ATOM     18  N   UNL     1     -28.518   7.386   7.702  1.00  0.00    -0.215 N 
ATOM     19  N   UNL     1     -29.876   9.285   6.891  1.00  0.00    -0.213 NA
ATOM     20  C   UNL     1     -31.441  10.995   6.190  1.00  0.00    +0.090 C 
BRANCH  18  21
ATOM     21  C   UNL     1     -27.174   7.751   7.376  1.00  0.00    +0.067 A 
ATOM     22  C   UNL     1     -26.176   6.760   7.381  1.00  0.00    +0.028 A 
ATOM     23  C   UNL     1     -26.818   9.066   7.051  1.00  0.00    +0.028 A 
ATOM     24  C   UNL     1     -24.853   7.081   7.068  1.00  0.00    +0.002 A 
ATOM     25  C   UNL     1     -25.491   9.382   6.738  1.00  0.00    +0.002 A 
ATOM     26  C   UNL     1     -24.511   8.391   6.746  1.00  0.00    +0.000 A 
ENDBRANCH  18  21
ENDBRANCH   9  11
ENDBRANCH   2   9
BRANCH   3  27
ATOM     27  C   UNL     1     -33.182   5.093  10.389  1.00  0.00    +0.034 C 
ATOM     28  C   UNL     1     -34.305   4.965  11.407  1.00  0.00    +0.009 C 
ENDBRANCH   3  27
TORSDOF 5
ENDMDL
MODEL 5
REMARK VINA RESULT:    -9.422      5.171      9.096
REMARK INTER + INTRA:         -12.650
REMARK INTER:                 -11.587
REMARK INTRA:                  -1.063
REMARK UNBOUND:                -0.474
REMARK SMILES CCc1cccc(CC)c1Nc1nc(C)nc2c1cnn2-c1ccccc1
REMARK SMILES IDX 3 1 10 2 7 3 6 4 5 5 4 6 2 7 1 8 11 9 12 11 18 12 13 13
REMARK SMILES IDX 19 14 17 15 14 16 20 17 21 18 16 19 15 20 22 21 23 22 27 23
REMARK SMILES IDX 24 24 26 25 25 26 8 27 9 28
REMARK H PARENT 11 10
ROOT
ATOM      1  C   UNL     1     -29.577   0.690  12.342  1.00  0.00    -0.024 A 
ATOM      2  C   UNL     1     -30.629   0.150  11.565  1.00  0.00    +0.046 A 
ATOM      3  C   UNL     1     -31.252  -1.053  11.979  1.00  0.00    -0.024 A 
ATOM      4  C   UNL     1     -30.885  -1.644  13.199  1.00  0.00    +0.006 A 
ATOM      5  C   UNL     1     -29.883  -1.085  13.984  1.00  0.00    +0.001 A 
ATOM      6  C   UNL     1     -29.227   0.065  13.552  1.00  0.00    +0.006 A 
ENDROOT
BRANCH   1   7
ATOM      7  C   UNL     1     -28.755   1.889  11.916  1.00  0.00    +0.034 C 
ATOM      8  C   UNL     1     -27.388   1.916  12.586  1.00  0.00    +0.009 C 
ENDBRANCH   1   7
BRANCH   2   9
ATOM      9  N   UNL     1     -31.010   0.704  10.324  1.00  0.00    -0.339 N 
ATOM     10  H   UNL     1     -30.247   0.711   9.654  1.00  0.00    +0.168 HD
BRANCH   9  11
ATOM     11  C   UNL     1     -31.775   1.861  10.111  1.00  0.00    +0.145 A 
ATOM     12  C   UNL     1     -33.147   1.983  10.351  1.00  0.00    +0.082 A 
ATOM     13  N   UNL     1     -31.116   2.937   9.619  1.00  0.00    -0.215 NA
ATOM     14  C   UNL     1     -34.193   1.177  10.828  1.00  0.00    +0.150 A 
ATOM     15  C   UNL     1     -33.744   3.205  10.080  1.00  0.00    +0.168 A 
ATOM     16  C   UNL     1     -31.795   4.077   9.379  1.00  0.00    +0.130 A 
ATOM     17  N   UNL     1     -35.365   1.809  10.868  1.00  0.00    -0.174 NA
ATOM     18  N   UNL     1     -35.094   3.069  10.405  1.00  0.00    -0.215 N 
ATOM     19  N   UNL     1     -33.102   4.288   9.597  1.00  0.00    -0.213 NA
ATOM     20  C   UNL     1     -30.999   5.237   8.861  1.00  0.00    +0.090 C 
BRANCH  18  21
ATOM     21  C   UNL     1     -36.152   4.027  10.317  1.00  0.00    +0.067 A 
ATOM     22  C   UNL     1     -37.210   3.797   9.418  1.00  0.00    +0.028 A 
ATOM     23  C   UNL     1     -36.169   5.191  11.096  1.00  0.00    +0.028 A 
ATOM     24  C   UNL     1     -38.260   4.712   9.306  1.00  0.00    +0.002 A 
ATOM     25  C   UNL     1     -37.223   6.104  10.978  1.00  0.00    +0.002 A 
ATOM     26  C   UNL     1     -38.266   5.864  10.085  1.00  0.00    +0.000 A 
ENDBRANCH  18  21
ENDBRANCH   9  11
ENDBRANCH   2   9
BRANCH   3  27
ATOM     27  C   UNL     1     -32.336  -1.720  11.159  1.00  0.00    +0.034 C 
ATOM     28  C   UNL     1     -32.662  -3.119  11.660  1.00  0.00    +0.009 C 
ENDBRANCH   3  27
TORSDOF 5
ENDMDL
MODEL 6
REMARK VINA RESULT:    -9.286      3.957      6.308
REMARK INTER + INTRA:         -12.475
REMARK INTER:                 -11.745
REMARK INTRA:                  -0.730
REMARK UNBOUND:                -0.474
REMARK SMILES CCc1cccc(CC)c1Nc1nc(C)nc2c1cnn2-c1ccccc1
REMARK SMILES IDX 3 1 10 2 7 3 6 4 5 5 4 6 2 7 1 8 11 9 12 11 18 12 13 13
REMARK SMILES IDX 19 14 17 15 14 16 20 17 21 18 16 19 15 20 22 21 23 22 27 23
REMARK SMILES IDX 24 24 26 25 25 26 8 27 9 28
REMARK H PARENT 11 10
ROOT
ATOM      1  C   UNL     1     -30.378   1.088  11.776  1.00  0.00    -0.024 A 
ATOM      2  C   UNL     1     -29.069   1.500  11.431  1.00  0.00    +0.046 A 
ATOM      3  C   UNL     1     -28.099   1.660  12.451  1.00  0.00    -0.024 A 
ATOM      4  C   UNL     1     -28.418   1.319  13.776  1.00  0.00    +0.006 A 
ATOM      5  C   UNL     1     -29.691   0.869  14.104  1.00  0.00    +0.001 A 
ATOM      6  C   UNL     1     -30.665   0.767  13.115  1.00  0.00    +0.006 A 
ENDROOT
BRANCH   1   7
ATOM      7  C   UNL     1     -31.521   1.023  10.785  1.00  0.00    +0.034 C 
ATOM      8  C   UNL     1     -32.848   1.435  11.409  1.00  0.00    +0.009 C 
ENDBRANCH   1   7
BRANCH   2   9
ATOM      9  N   UNL     1     -28.718   1.872  10.115  1.00  0.00    -0.339 N 
ATOM     10  H   UNL     1     -27.854   1.434   9.808  1.00  0.00    +0.168 HD
BRANCH   9  11
ATOM     11  C   UNL     1     -28.768   3.157   9.555  1.00  0.00    +0.145 A 
ATOM     12  C   UNL     1     -27.667   3.879   9.081  1.00  0.00    +0.082 A 
ATOM     13  N   UNL     1     -29.988   3.739   9.485  1.00  0.00    -0.215 NA
ATOM     14  C   UNL     1     -26.281   3.696   8.959  1.00  0.00    +0.150 A 
ATOM     15  C   UNL     1     -27.900   5.142   8.559  1.00  0.00    +0.168 A 
ATOM     16  C   UNL     1     -30.104   4.979   8.970  1.00  0.00    +0.130 A 
ATOM     17  N   UNL     1     -25.661   4.738   8.408  1.00  0.00    -0.174 NA
ATOM     18  N   UNL     1     -26.659   5.641   8.158  1.00  0.00    -0.215 N 
ATOM     19  N   UNL     1     -29.109   5.733   8.476  1.00  0.00    -0.213 NA
ATOM     20  C   UNL     1     -31.487   5.552   8.898  1.00  0.00    +0.090 C 
BRANCH  18  21
ATOM     21  C   UNL     1     -26.336   6.897   7.556  1.00  0.00    +0.067 A 
ATOM     22  C   UNL     1     -25.017   7.130   7.126  1.00  0.00    +0.028 A 
ATOM     23  C   UNL     1     -27.292   7.906   7.380  1.00  0.00    +0.028 A 
ATOM     24  C   UNL     1     -24.666   8.346   6.534  1.00  0.00    +0.002 A 
ATOM     25  C   UNL     1     -26.933   9.122   6.787  1.00  0.00    +0.002 A 
ATOM     26  C   UNL     1     -25.624   9.341   6.364  1.00  0.00    +0.000 A 
ENDBRANCH  18  21
ENDBRANCH   9  11
ENDBRANCH   2   9
BRANCH   3  27
ATOM     27  C   UNL     1     -26.701   2.164  12.159  1.00  0.00    +0.034 C 
ATOM     28  C   UNL     1     -26.501   3.604  12.605  1.00  0.00    +0.009 C 
ENDBRANCH   3  27
TORSDOF 5
ENDMDL
MODEL 7
REMARK VINA RESULT:    -8.575      5.000      7.331
REMARK INTER + INTRA:         -11.556
REMARK INTER:                 -11.501
REMARK INTRA:                  -0.055
REMARK UNBOUND:                -0.474
REMARK SMILES CCc1cccc(CC)c1Nc1nc(C)nc2c1cnn2-c1ccccc1
REMARK SMILES IDX 3 1 10 2 7 3 6 4 5 5 4 6 2 7 1 8 11 9 12 11 18 12 13 13
REMARK SMILES IDX 19 14 17 15 14 16 20 17 21 18 16 19 15 20 22 21 23 22 27 23
REMARK SMILES IDX 24 24 26 25 25 26 8 27 9 28
REMARK H PARENT 11 10
ROOT
ATOM      1  C   UNL     1     -30.541  -0.002  11.933  1.00  0.00    -0.024 A 
ATOM      2  C   UNL     1     -29.170   0.347  11.961  1.00  0.00    +0.046 A 
ATOM      3  C   UNL     1     -28.642   0.994  13.105  1.00  0.00    -0.024 A 
ATOM      4  C   UNL     1     -29.457   1.196  14.230  1.00  0.00    +0.006 A 
ATOM      5  C   UNL     1     -30.791   0.809  14.217  1.00  0.00    +0.001 A 
ATOM      6  C   UNL     1     -31.331   0.227  13.074  1.00  0.00    +0.006 A 
ENDROOT
BRANCH   1   7
ATOM      7  C   UNL     1     -31.234  -0.567  10.710  1.00  0.00    +0.034 C 
ATOM      8  C   UNL     1     -32.016  -1.835  11.026  1.00  0.00    +0.009 C 
ENDBRANCH   1   7
BRANCH   2   9
ATOM      9  N   UNL     1     -28.327   0.178  10.841  1.00  0.00    -0.339 N 
ATOM     10  H   UNL     1     -27.837  -0.712  10.858  1.00  0.00    +0.168 HD
BRANCH   9  11
ATOM     11  C   UNL     1     -27.462   1.130  10.280  1.00  0.00    +0.145 A 
ATOM     12  C   UNL     1     -27.846   2.376   9.772  1.00  0.00    +0.082 A 
ATOM     13  N   UNL     1     -26.152   0.795  10.223  1.00  0.00    -0.215 NA
ATOM     14  C   UNL     1     -29.030   3.114   9.619  1.00  0.00    +0.150 A 
ATOM     15  C   UNL     1     -26.855   3.192   9.250  1.00  0.00    +0.168 A 
ATOM     16  C   UNL     1     -25.269   1.659   9.683  1.00  0.00    +0.130 A 
ATOM     17  N   UNL     1     -28.835   4.304   9.053  1.00  0.00    -0.174 NA
ATOM     18  N   UNL     1     -27.487   4.360   8.820  1.00  0.00    -0.215 N 
ATOM     19  N   UNL     1     -25.545   2.878   9.191  1.00  0.00    -0.213 NA
ATOM     20  C   UNL     1     -23.831   1.236   9.675  1.00  0.00    +0.090 C 
BRANCH  18  21
ATOM     21  C   UNL     1     -26.928   5.525   8.210  1.00  0.00    +0.067 A 
ATOM     22  C   UNL     1     -25.602   5.482   7.742  1.00  0.00    +0.028 A 
ATOM     23  C   UNL     1     -27.657   6.712   8.063  1.00  0.00    +0.028 A 
ATOM     24  C   UNL     1     -25.022   6.602   7.140  1.00  0.00    +0.002 A 
ATOM     25  C   UNL     1     -27.071   7.831   7.460  1.00  0.00    +0.002 A 
ATOM     26  C   UNL     1     -25.757   7.776   6.999  1.00  0.00    +0.000 A 
ENDBRANCH  18  21
ENDBRANCH   9  11
ENDBRANCH   2   9
BRANCH   3  27
ATOM     27  C   UNL     1     -27.201   1.456  13.173  1.00  0.00    +0.034 C 
ATOM     28  C   UNL     1     -27.081   2.972  13.205  1.00  0.00    +0.009 C 
ENDBRANCH   3  27
TORSDOF 5
ENDMDL
MODEL 8
REMARK VINA RESULT:    -8.485      6.365     11.369
REMARK INTER + INTRA:         -11.439
REMARK INTER:                 -10.349
REMARK INTRA:                  -1.090
REMARK UNBOUND:                -0.474
REMARK SMILES CCc1cccc(CC)c1Nc1nc(C)nc2c1cnn2-c1ccccc1
REMARK SMILES IDX 3 1 10 2 7 3 6 4 5 5 4 6 2 7 1 8 11 9 12 11 18 12 13 13
REMARK SMILES IDX 19 14 17 15 14 16 20 17 21 18 16 19 15 20 22 21 23 22 27 23
REMARK SMILES IDX 24 24 26 25 25 26 8 27 9 28
REMARK H PARENT 11 10
ROOT
ATOM      1  C   UNL     1     -25.601   3.945  10.308  1.00  0.00    -0.024 A 
ATOM      2  C   UNL     1     -26.952   3.522  10.312  1.00  0.00    +0.046 A 
ATOM      3  C   UNL     1     -27.830   3.991   9.305  1.00  0.00    -0.024 A 
ATOM      4  C   UNL     1     -27.332   4.792   8.264  1.00  0.00    +0.006 A 
ATOM      5  C   UNL     1     -25.994   5.166   8.237  1.00  0.00    +0.001 A 
ATOM      6  C   UNL     1     -25.140   4.757   9.257  1.00  0.00    +0.006 A 
ENDROOT
BRANCH   1   7
ATOM      7  C   UNL     1     -24.620   3.615  11.414  1.00  0.00    +0.034 C 
ATOM      8  C   UNL     1     -23.617   2.550  10.993  1.00  0.00    +0.009 C 
ENDBRANCH   1   7
BRANCH   2   9
ATOM      9  N   UNL     1     -27.492   2.736  11.353  1.00  0.00    -0.339 N 
ATOM     10  H   UNL     1     -27.060   2.935  12.251  1.00  0.00    +0.168 HD
BRANCH   9  11
ATOM     11  C   UNL     1     -27.784   1.364  11.316  1.00  0.00    +0.145 A 
ATOM     12  C   UNL     1     -28.926   0.762  11.856  1.00  0.00    +0.082 A 
ATOM     13  N   UNL     1     -26.869   0.568  10.714  1.00  0.00    -0.215 NA
ATOM     14  C   UNL     1     -30.083   1.162  12.542  1.00  0.00    +0.150 A 
ATOM     15  C   UNL     1     -29.052  -0.612  11.730  1.00  0.00    +0.168 A 
ATOM     16  C   UNL     1     -27.083  -0.762  10.656  1.00  0.00    +0.130 A 
ATOM     17  N   UNL     1     -30.894   0.148  12.837  1.00  0.00    -0.174 NA
ATOM     18  N   UNL     1     -30.260  -0.958  12.337  1.00  0.00    -0.215 N 
ATOM     19  N   UNL     1     -28.154  -1.419  11.128  1.00  0.00    -0.213 NA
ATOM     20  C   UNL     1     -26.043  -1.581   9.952  1.00  0.00    +0.090 C 
BRANCH  18  21
ATOM     21  C   UNL     1     -30.868  -2.244  12.483  1.00  0.00    +0.067 A 
ATOM     22  C   UNL     1     -32.098  -2.495  11.848  1.00  0.00    +0.028 A 
ATOM     23  C   UNL     1     -30.280  -3.264  13.242  1.00  0.00    +0.028 A 
ATOM     24  C   UNL     1     -32.721  -3.739  11.969  1.00  0.00    +0.002 A 
ATOM     25  C   UNL     1     -30.910  -4.508  13.360  1.00  0.00    +0.002 A 
ATOM     26  C   UNL     1     -32.128  -4.745  12.725  1.00  0.00    +0.000 A 
ENDBRANCH  18  21
ENDBRANCH   9  11
ENDBRANCH   2   9
BRANCH   3  27
ATOM     27  C   UNL     1     -29.301   3.633   9.290  1.00  0.00    +0.034 C 
ATOM     28  C   UNL     1     -30.181   4.816   8.919  1.00  0.00    +0.009 C 
ENDBRANCH   3  27
TORSDOF 5
ENDMDL
MODEL 9
REMARK VINA RESULT:    -8.309      7.253     12.415
REMARK INTER + INTRA:         -11.212
REMARK INTER:                 -10.451
REMARK INTRA:                  -0.761
REMARK UNBOUND:                -0.474
REMARK SMILES CCc1cccc(CC)c1Nc1nc(C)nc2c1cnn2-c1ccccc1
REMARK SMILES IDX 3 1 10 2 7 3 6 4 5 5 4 6 2 7 1 8 11 9 12 11 18 12 13 13
REMARK SMILES IDX 19 14 17 15 14 16 20 17 21 18 16 19 15 20 22 21 23 22 27 23
REMARK SMILES IDX 24 24 26 25 25 26 8 27 9 28
REMARK H PARENT 11 10
ROOT
ATOM      1  C   UNL     1     -24.427   0.803  10.386  1.00  0.00    -0.024 A 
ATOM      2  C   UNL     1     -25.618   1.475  10.025  1.00  0.00    +0.046 A 
ATOM      3  C   UNL     1     -25.729   2.867  10.263  1.00  0.00    -0.024 A 
ATOM      4  C   UNL     1     -24.627   3.579  10.765  1.00  0.00    +0.006 A 
ATOM      5  C   UNL     1     -23.442   2.923  11.074  1.00  0.00    +0.001 A 
ATOM      6  C   UNL     1     -23.348   1.545  10.898  1.00  0.00    +0.006 A 
ENDROOT
BRANCH   1   7
ATOM      7  C   UNL     1     -24.259  -0.701  10.304  1.00  0.00    +0.034 C 
ATOM      8  C   UNL     1     -22.794  -1.116  10.304  1.00  0.00    +0.009 C 
ENDBRANCH   1   7
BRANCH   2   9
ATOM      9  N   UNL     1     -26.752   0.790   9.539  1.00  0.00    -0.339 N 
ATOM     10  H   UNL     1     -27.063   1.148   8.640  1.00  0.00    +0.168 HD
BRANCH   9  11
ATOM     11  C   UNL     1     -27.892   0.414  10.265  1.00  0.00    +0.145 A 
ATOM     12  C   UNL     1     -27.972  -0.670  11.146  1.00  0.00    +0.082 A 
ATOM     13  N   UNL     1     -29.003   1.166  10.077  1.00  0.00    -0.215 NA
ATOM     14  C   UNL     1     -27.126  -1.680  11.627  1.00  0.00    +0.150 A 
ATOM     15  C   UNL     1     -29.184  -0.897  11.780  1.00  0.00    +0.168 A 
ATOM     16  C   UNL     1     -30.136   0.850  10.735  1.00  0.00    +0.130 A 
ATOM     17  N   UNL     1     -27.723  -2.494  12.496  1.00  0.00    -0.174 NA
ATOM     18  N   UNL     1     -29.002  -2.015  12.596  1.00  0.00    -0.215 N 
ATOM     19  N   UNL     1     -30.297  -0.156  11.610  1.00  0.00    -0.213 NA
ATOM     20  C   UNL     1     -31.320   1.740  10.502  1.00  0.00    +0.090 C 
BRANCH  18  21
ATOM     21  C   UNL     1     -29.931  -2.669  13.463  1.00  0.00    +0.067 A 
ATOM     22  C   UNL     1     -30.864  -3.568  12.914  1.00  0.00    +0.028 A 
ATOM     23  C   UNL     1     -29.946  -2.443  14.846  1.00  0.00    +0.028 A 
ATOM     24  C   UNL     1     -31.787  -4.224  13.732  1.00  0.00    +0.002 A 
ATOM     25  C   UNL     1     -30.873  -3.103  15.660  1.00  0.00    +0.002 A 
ATOM     26  C   UNL     1     -31.791  -3.991  15.104  1.00  0.00    +0.000 A 
ENDBRANCH  18  21
ENDBRANCH   9  11
ENDBRANCH   2   9
BRANCH   3  27
ATOM     27  C   UNL     1     -27.000   3.634   9.964  1.00  0.00    +0.034 C 
ATOM     28  C   UNL     1     -26.908   4.424   8.668  1.00  0.00    +0.009 C 
ENDBRANCH   3  27
TORSDOF 5
ENDMDL
