MODEL 1
REMARK VINA RESULT:    -9.874      0.000      0.000
REMARK INTER + INTRA:         -10.529
REMARK INTER:                 -10.452
REMARK INTRA:                  -0.077
REMARK UNBOUND:                -0.077
REMARK SMILES O=Cc1c2ccccc2cc2ccccc12
REMARK SMILES IDX 3 1 4 2 5 3 6 4 7 5 8 6 9 7 10 8 11 9 16 10 15 11 14 12
REMARK SMILES IDX 13 13 12 14 2 15 1 16
REMARK H PARENT
ROOT
ATOM      1  C   UNL     1     -26.926  10.279   6.111  1.00  0.00    +0.030 A 
ATOM      2  C   UNL     1     -28.301  10.597   6.324  1.00  0.00    -0.007 A 
ATOM      3  C   UNL     1     -28.934  11.802   5.914  1.00  0.00    +0.009 A 
ATOM      4  C   UNL     1     -30.287  12.047   6.159  1.00  0.00    +0.001 A 
ATOM      5  C   UNL     1     -31.053  11.094   6.813  1.00  0.00    +0.001 A 
ATOM      6  C   UNL     1     -30.467   9.896   7.213  1.00  0.00    +0.009 A 
ATOM      7  C   UNL     1     -29.107   9.635   6.972  1.00  0.00    -0.017 A 
ATOM      8  C   UNL     1     -28.550   8.413   7.372  1.00  0.00    +0.017 A 
ATOM      9  C   UNL     1     -27.202   8.100   7.153  1.00  0.00    -0.017 A 
ATOM     10  C   UNL     1     -26.355   9.034   6.516  1.00  0.00    -0.007 A 
ATOM     11  C   UNL     1     -24.995   8.662   6.351  1.00  0.00    +0.009 A 
ATOM     12  C   UNL     1     -24.506   7.426   6.780  1.00  0.00    +0.001 A 
ATOM     13  C   UNL     1     -25.360   6.522   7.394  1.00  0.00    +0.001 A 
ATOM     14  C   UNL     1     -26.699   6.858   7.579  1.00  0.00    +0.009 A 
ENDROOT
BRANCH   1  15
ATOM     15  C   UNL     1     -26.069  11.314   5.479  1.00  0.00    +0.261 C 
ATOM     16  O   UNL     1     -25.937  11.438   4.269  1.00  0.00    -0.298 OA
ENDBRANCH   1  15
TORSDOF 1
ENDMDL
MODEL 2
REMARK VINA RESULT:    -9.867      0.248      4.612
REMARK INTER + INTRA:         -10.521
REMARK INTER:                 -10.453
REMARK INTRA:                  -0.068
REMARK UNBOUND:                -0.077
REMARK SMILES O=Cc1c2ccccc2cc2ccccc12
REMARK SMILES IDX 3 1 4 2 5 3 6 4 7 5 8 6 9 7 10 8 11 9 16 10 15 11 14 12
REMARK SMILES IDX 13 13 12 14 2 15 1 16
REMARK H PARENT
ROOT
ATOM      1  C   UNL     1     -27.112  10.403   6.163  1.00  0.00    +0.030 A 
ATOM      2  C   UNL     1     -26.450   9.183   6.496  1.00  0.00    -0.007 A 
ATOM      3  C   UNL     1     -25.065   8.926   6.307  1.00  0.00    +0.009 A 
ATOM      4  C   UNL     1     -24.485   7.704   6.655  1.00  0.00    +0.001 A 
ATOM      5  C   UNL     1     -25.267   6.703   7.210  1.00  0.00    +0.001 A 
ATOM      6  C   UNL     1     -26.624   6.929   7.424  1.00  0.00    +0.009 A 
ATOM      7  C   UNL     1     -27.221   8.154   7.080  1.00  0.00    -0.017 A 
ATOM      8  C   UNL     1     -28.586   8.356   7.323  1.00  0.00    +0.017 A 
ATOM      9  C   UNL     1     -29.230   9.559   7.004  1.00  0.00    -0.017 A 
ATOM     10  C   UNL     1     -28.502  10.614   6.410  1.00  0.00    -0.007 A 
ATOM     11  C   UNL     1     -29.224  11.793   6.088  1.00  0.00    +0.009 A 
ATOM     12  C   UNL     1     -30.588  11.925   6.354  1.00  0.00    +0.001 A 
ATOM     13  C   UNL     1     -31.279  10.879   6.947  1.00  0.00    +0.001 A 
ATOM     14  C   UNL     1     -30.604   9.704   7.268  1.00  0.00    +0.009 A 
ENDROOT
BRANCH   1  15
ATOM     15  C   UNL     1     -26.310  11.463   5.499  1.00  0.00    +0.261 C 
ATOM     16  O   UNL     1     -26.082  11.487   4.297  1.00  0.00    -0.298 OA
ENDBRANCH   1  15
TORSDOF 1
ENDMDL
MODEL 3
REMARK VINA RESULT:    -9.580      1.786      3.119
REMARK INTER + INTRA:         -10.217
REMARK INTER:                 -10.126
REMARK INTRA:                  -0.090
REMARK UNBOUND:                -0.077
REMARK SMILES O=Cc1c2ccccc2cc2ccccc12
REMARK SMILES IDX 3 1 4 2 5 3 6 4 7 5 8 6 9 7 10 8 11 9 16 10 15 11 14 12
REMARK SMILES IDX 13 13 12 14 2 15 1 16
REMARK H PARENT
ROOT
ATOM      1  C   UNL     1     -28.401   9.102   6.984  1.00  0.00    +0.030 A 
ATOM      2  C   UNL     1     -28.151  10.359   6.354  1.00  0.00    -0.007 A 
ATOM      3  C   UNL     1     -29.124  11.371   6.134  1.00  0.00    +0.009 A 
ATOM      4  C   UNL     1     -28.807  12.579   5.507  1.00  0.00    +0.001 A 
ATOM      5  C   UNL     1     -27.507  12.817   5.088  1.00  0.00    +0.001 A 
ATOM      6  C   UNL     1     -26.527  11.853   5.303  1.00  0.00    +0.009 A 
ATOM      7  C   UNL     1     -26.831  10.634   5.934  1.00  0.00    -0.017 A 
ATOM      8  C   UNL     1     -25.818   9.690   6.151  1.00  0.00    +0.017 A 
ATOM      9  C   UNL     1     -26.065   8.461   6.779  1.00  0.00    -0.017 A 
ATOM     10  C   UNL     1     -27.372   8.139   7.208  1.00  0.00    -0.007 A 
ATOM     11  C   UNL     1     -27.555   6.867   7.811  1.00  0.00    +0.009 A 
ATOM     12  C   UNL     1     -26.499   5.971   7.992  1.00  0.00    +0.001 A 
ATOM     13  C   UNL     1     -25.223   6.315   7.570  1.00  0.00    +0.001 A 
ATOM     14  C   UNL     1     -25.009   7.552   6.967  1.00  0.00    +0.009 A 
ENDROOT
BRANCH   1  15
ATOM     15  C   UNL     1     -29.800   8.794   7.375  1.00  0.00    +0.261 C 
ATOM     16  O   UNL     1     -30.595   8.214   6.648  1.00  0.00    -0.298 OA
ENDBRANCH   1  15
TORSDOF 1
ENDMDL
MODEL 4
REMARK VINA RESULT:    -9.076      1.902      4.353
REMARK INTER + INTRA:          -9.683
REMARK INTER:                  -9.594
REMARK INTRA:                  -0.089
REMARK UNBOUND:                -0.077
REMARK SMILES O=Cc1c2ccccc2cc2ccccc12
REMARK SMILES IDX 3 1 4 2 5 3 6 4 7 5 8 6 9 7 10 8 11 9 16 10 15 11 14 12
REMARK SMILES IDX 13 13 12 14 2 15 1 16
REMARK H PARENT
ROOT
ATOM      1  C   UNL     1     -28.439   9.042   6.685  1.00  0.00    +0.030 A 
ATOM      2  C   UNL     1     -28.117  10.341   6.190  1.00  0.00    -0.007 A 
ATOM      3  C   UNL     1     -26.834  10.748   5.735  1.00  0.00    +0.009 A 
ATOM      4  C   UNL     1     -26.590  12.041   5.264  1.00  0.00    +0.001 A 
ATOM      5  C   UNL     1     -27.623  12.966   5.225  1.00  0.00    +0.001 A 
ATOM      6  C   UNL     1     -28.896  12.594   5.647  1.00  0.00    +0.009 A 
ATOM      7  C   UNL     1     -29.156  11.296   6.122  1.00  0.00    -0.017 A 
ATOM      8  C   UNL     1     -30.452  10.948   6.524  1.00  0.00    +0.017 A 
ATOM      9  C   UNL     1     -30.766   9.668   7.001  1.00  0.00    -0.017 A 
ATOM     10  C   UNL     1     -29.758   8.682   7.095  1.00  0.00    -0.007 A 
ATOM     11  C   UNL     1     -30.142   7.417   7.612  1.00  0.00    +0.009 A 
ATOM     12  C   UNL     1     -31.454   7.140   8.000  1.00  0.00    +0.001 A 
ATOM     13  C   UNL     1     -32.428   8.121   7.889  1.00  0.00    +0.001 A 
ATOM     14  C   UNL     1     -32.085   9.377   7.394  1.00  0.00    +0.009 A 
ENDROOT
BRANCH   1  15
ATOM     15  C   UNL     1     -27.334   8.057   6.806  1.00  0.00    +0.261 C 
ATOM     16  O   UNL     1     -26.682   7.892   7.829  1.00  0.00    -0.298 OA
ENDBRANCH   1  15
TORSDOF 1
ENDMDL
MODEL 5
REMARK VINA RESULT:    -9.041      1.888      4.213
REMARK INTER + INTRA:          -9.647
REMARK INTER:                  -9.560
REMARK INTRA:                  -0.087
REMARK UNBOUND:                -0.077
REMARK SMILES O=Cc1c2ccccc2cc2ccccc12
REMARK SMILES IDX 3 1 4 2 5 3 6 4 7 5 8 6 9 7 10 8 11 9 16 10 15 11 14 12
REMARK SMILES IDX 13 13 12 14 2 15 1 16
REMARK H PARENT
ROOT
ATOM      1  C   UNL     1     -28.436   9.092   6.730  1.00  0.00    +0.030 A 
ATOM      2  C   UNL     1     -29.748   8.692   7.128  1.00  0.00    -0.007 A 
ATOM      3  C   UNL     1     -30.088   7.418   7.657  1.00  0.00    +0.009 A 
ATOM      4  C   UNL     1     -31.397   7.095   8.025  1.00  0.00    +0.001 A 
ATOM      5  C   UNL     1     -32.405   8.036   7.883  1.00  0.00    +0.001 A 
ATOM      6  C   UNL     1     -32.101   9.300   7.384  1.00  0.00    +0.009 A 
ATOM      7  C   UNL     1     -30.789   9.639   7.012  1.00  0.00    -0.017 A 
ATOM      8  C   UNL     1     -30.512  10.925   6.527  1.00  0.00    +0.017 A 
ATOM      9  C   UNL     1     -29.222  11.317   6.146  1.00  0.00    -0.017 A 
ATOM     10  C   UNL     1     -28.150  10.401   6.238  1.00  0.00    -0.007 A 
ATOM     11  C   UNL     1     -26.876  10.857   5.809  1.00  0.00    +0.009 A 
ATOM     12  C   UNL     1     -26.673  12.153   5.331  1.00  0.00    +0.001 A 
ATOM     13  C   UNL     1     -27.740  13.037   5.260  1.00  0.00    +0.001 A 
ATOM     14  C   UNL     1     -29.005  12.620   5.664  1.00  0.00    +0.009 A 
ENDROOT
BRANCH   1  15
ATOM     15  C   UNL     1     -27.355   8.077   6.803  1.00  0.00    +0.261 C 
ATOM     16  O   UNL     1     -26.585   7.974   7.748  1.00  0.00    -0.298 OA
ENDBRANCH   1  15
TORSDOF 1
ENDMDL
MODEL 6
REMARK VINA RESULT:    -7.929      2.786      5.191
REMARK INTER + INTRA:          -8.469
REMARK INTER:                  -8.382
REMARK INTRA:                  -0.088
REMARK UNBOUND:                -0.077
REMARK SMILES O=Cc1c2ccccc2cc2ccccc12
REMARK SMILES IDX 3 1 4 2 5 3 6 4 7 5 8 6 9 7 10 8 11 9 16 10 15 11 14 12
REMARK SMILES IDX 13 13 12 14 2 15 1 16
REMARK H PARENT
ROOT
ATOM      1  C   UNL     1     -29.420   8.113   7.773  1.00  0.00    +0.030 A 
ATOM      2  C   UNL     1     -30.532   7.246   7.995  1.00  0.00    -0.007 A 
ATOM      3  C   UNL     1     -30.463   5.968   8.611  1.00  0.00    +0.009 A 
ATOM      4  C   UNL     1     -31.596   5.171   8.794  1.00  0.00    +0.001 A 
ATOM      5  C   UNL     1     -32.836   5.630   8.375  1.00  0.00    +0.001 A 
ATOM      6  C   UNL     1     -32.941   6.886   7.783  1.00  0.00    +0.009 A 
ATOM      7  C   UNL     1     -31.809   7.698   7.595  1.00  0.00    -0.017 A 
ATOM      8  C   UNL     1     -31.950   8.964   7.011  1.00  0.00    +0.017 A 
ATOM      9  C   UNL     1     -30.857   9.816   6.803  1.00  0.00    -0.017 A 
ATOM     10  C   UNL     1     -29.560   9.404   7.180  1.00  0.00    -0.007 A 
ATOM     11  C   UNL     1     -28.495  10.305   6.915  1.00  0.00    +0.009 A 
ATOM     12  C   UNL     1     -28.708  11.552   6.324  1.00  0.00    +0.001 A 
ATOM     13  C   UNL     1     -29.993  11.939   5.972  1.00  0.00    +0.001 A 
ATOM     14  C   UNL     1     -31.059  11.075   6.209  1.00  0.00    +0.009 A 
ENDROOT
BRANCH   1  15
ATOM     15  C   UNL     1     -28.072   7.612   8.146  1.00  0.00    +0.261 C 
ATOM     16  O   UNL     1     -27.314   7.059   7.361  1.00  0.00    -0.298 OA
ENDBRANCH   1  15
TORSDOF 1
ENDMDL
MODEL 7
REMARK VINA RESULT:    -7.651      6.588      8.563
REMARK INTER + INTRA:          -8.175
REMARK INTER:                  -8.120
REMARK INTRA:                  -0.055
REMARK UNBOUND:                -0.077
REMARK SMILES O=Cc1c2ccccc2cc2ccccc12
REMARK SMILES IDX 3 1 4 2 5 3 6 4 7 5 8 6 9 7 10 8 11 9 16 10 15 11 14 12
REMARK SMILES IDX 13 13 12 14 2 15 1 16
REMARK H PARENT
ROOT
ATOM      1  C   UNL     1     -32.649   5.351   8.420  1.00  0.00    +0.030 A 
ATOM      2  C   UNL     1     -33.432   4.243   8.864  1.00  0.00    -0.007 A 
ATOM      3  C   UNL     1     -33.289   3.592  10.119  1.00  0.00    +0.009 A 
ATOM      4  C   UNL     1     -34.091   2.508  10.486  1.00  0.00    +0.001 A 
ATOM      5  C   UNL     1     -35.067   2.046   9.615  1.00  0.00    +0.001 A 
ATOM      6  C   UNL     1     -35.243   2.673   8.384  1.00  0.00    +0.009 A 
ATOM      7  C   UNL     1     -34.444   3.765   8.003  1.00  0.00    -0.017 A 
ATOM      8  C   UNL     1     -34.657   4.385   6.764  1.00  0.00    +0.017 A 
ATOM      9  C   UNL     1     -33.893   5.479   6.336  1.00  0.00    -0.017 A 
ATOM     10  C   UNL     1     -32.864   5.986   7.160  1.00  0.00    -0.007 A 
ATOM     11  C   UNL     1     -32.112   7.078   6.652  1.00  0.00    +0.009 A 
ATOM     12  C   UNL     1     -32.376   7.645   5.403  1.00  0.00    +0.001 A 
ATOM     13  C   UNL     1     -33.399   7.135   4.617  1.00  0.00    +0.001 A 
ATOM     14  C   UNL     1     -34.151   6.059   5.081  1.00  0.00    +0.009 A 
ENDROOT
BRANCH   1  15
ATOM     15  C   UNL     1     -31.550   5.816   9.304  1.00  0.00    +0.261 C 
ATOM     16  O   UNL     1     -30.370   5.554   9.115  1.00  0.00    -0.298 OA
ENDBRANCH   1  15
TORSDOF 1
ENDMDL
MODEL 8
REMARK VINA RESULT:    -7.596      6.582      8.143
REMARK INTER + INTRA:          -8.118
REMARK INTER:                  -8.112
REMARK INTRA:                  -0.006
REMARK UNBOUND:                -0.077
REMARK SMILES O=Cc1c2ccccc2cc2ccccc12
REMARK SMILES IDX 3 1 4 2 5 3 6 4 7 5 8 6 9 7 10 8 11 9 16 10 15 11 14 12
REMARK SMILES IDX 13 13 12 14 2 15 1 16
REMARK H PARENT
ROOT
ATOM      1  C   UNL     1     -32.625   5.342   8.413  1.00  0.00    +0.030 A 
ATOM      2  C   UNL     1     -32.876   5.953   7.148  1.00  0.00    -0.007 A 
ATOM      3  C   UNL     1     -32.149   7.051   6.612  1.00  0.00    +0.009 A 
ATOM      4  C   UNL     1     -32.452   7.602   5.365  1.00  0.00    +0.001 A 
ATOM      5  C   UNL     1     -33.485   7.068   4.608  1.00  0.00    +0.001 A 
ATOM      6  C   UNL     1     -34.205   5.982   5.097  1.00  0.00    +0.009 A 
ATOM      7  C   UNL     1     -33.910   5.417   6.350  1.00  0.00    -0.017 A 
ATOM      8  C   UNL     1     -34.643   4.313   6.806  1.00  0.00    +0.017 A 
ATOM      9  C   UNL     1     -34.388   3.709   8.045  1.00  0.00    -0.017 A 
ATOM     10  C   UNL     1     -33.368   4.216   8.881  1.00  0.00    -0.007 A 
ATOM     11  C   UNL     1     -33.183   3.573  10.133  1.00  0.00    +0.009 A 
ATOM     12  C   UNL     1     -33.956   2.478  10.526  1.00  0.00    +0.001 A 
ATOM     13  C   UNL     1     -34.944   1.992   9.684  1.00  0.00    +0.001 A 
ATOM     14  C   UNL     1     -35.159   2.605   8.452  1.00  0.00    +0.009 A 
ENDROOT
BRANCH   1  15
ATOM     15  C   UNL     1     -31.573   5.942   9.272  1.00  0.00    +0.261 C 
ATOM     16  O   UNL     1     -30.374   5.796   9.077  1.00  0.00    -0.298 OA
ENDBRANCH   1  15
TORSDOF 1
ENDMDL
MODEL 9
REMARK VINA RESULT:    -7.488      5.722      7.561
REMARK INTER + INTRA:          -8.002
REMARK INTER:                  -7.912
REMARK INTRA:                  -0.090
REMARK UNBOUND:                -0.077
REMARK SMILES O=Cc1c2ccccc2cc2ccccc12
REMARK SMILES IDX 3 1 4 2 5 3 6 4 7 5 8 6 9 7 10 8 11 9 16 10 15 11 14 12
REMARK SMILES IDX 13 13 12 14 2 15 1 16
REMARK H PARENT
ROOT
ATOM      1  C   UNL     1     -33.401   6.037   6.882  1.00  0.00    +0.030 A 
ATOM      2  C   UNL     1     -32.185   6.779   6.980  1.00  0.00    -0.007 A 
ATOM      3  C   UNL     1     -31.738   7.742   6.036  1.00  0.00    +0.009 A 
ATOM      4  C   UNL     1     -30.533   8.431   6.195  1.00  0.00    +0.001 A 
ATOM      5  C   UNL     1     -29.740   8.184   7.306  1.00  0.00    +0.001 A 
ATOM      6  C   UNL     1     -30.158   7.258   8.257  1.00  0.00    +0.009 A 
ATOM      7  C   UNL     1     -31.369   6.560   8.111  1.00  0.00    -0.017 A 
ATOM      8  C   UNL     1     -31.769   5.646   9.095  1.00  0.00    +0.017 A 
ATOM      9  C   UNL     1     -32.968   4.927   9.001  1.00  0.00    -0.017 A 
ATOM     10  C   UNL     1     -33.813   5.106   7.883  1.00  0.00    -0.007 A 
ATOM     11  C   UNL     1     -34.998   4.325   7.840  1.00  0.00    +0.009 A 
ATOM     12  C   UNL     1     -35.333   3.427   8.856  1.00  0.00    +0.001 A 
ATOM     13  C   UNL     1     -34.492   3.276   9.948  1.00  0.00    +0.001 A 
ATOM     14  C   UNL     1     -33.317   4.020  10.018  1.00  0.00    +0.009 A 
ENDROOT
BRANCH   1  15
ATOM     15  C   UNL     1     -34.230   6.229   5.666  1.00  0.00    +0.261 C 
ATOM     16  O   UNL     1     -34.129   5.540   4.660  1.00  0.00    -0.298 OA
ENDBRANCH   1  15
TORSDOF 1
ENDMDL
