MODEL 1
REMARK VINA RESULT:   -10.149      0.000      0.000
REMARK INTER + INTRA:         -11.574
REMARK INTER:                 -11.632
REMARK INTRA:                   0.057
REMARK UNBOUND:                 0.057
REMARK SMILES Cc1nc(N)c2cnn(-c3ccc([N+](=O)[O-])cc3)c2n1
REMARK SMILES IDX 1 1 2 2 3 3 4 4 6 5 7 6 8 7 9 8 19 9 20 10 5 11 10 14 11 15
REMARK SMILES IDX 18 16 12 17 17 18 13 19 14 20 15 21 16 22
REMARK H PARENT 5 12 5 13
ROOT
ATOM      1  C   UNL     1     -31.275  11.124   7.654  1.00  0.00    +0.090 C 
ATOM      2  C   UNL     1     -29.968  11.170   6.921  1.00  0.00    +0.130 A 
ATOM      3  N   UNL     1     -29.731  12.267   6.172  1.00  0.00    -0.216 NA
ATOM      4  C   UNL     1     -28.561  12.377   5.518  1.00  0.00    +0.138 A 
ATOM      5  C   UNL     1     -27.629  11.347   5.640  1.00  0.00    +0.082 A 
ATOM      6  C   UNL     1     -26.342  11.057   5.169  1.00  0.00    +0.150 A 
ATOM      7  N   UNL     1     -25.881   9.884   5.601  1.00  0.00    -0.174 NA
ATOM      8  N   UNL     1     -26.883   9.391   6.395  1.00  0.00    -0.215 N 
ATOM      9  C   UNL     1     -27.968  10.266   6.436  1.00  0.00    +0.168 A 
ATOM     10  N   UNL     1     -29.132  10.130   7.103  1.00  0.00    -0.213 NA
ENDROOT
BRANCH   4  11
ATOM     11  N   UNL     1     -28.366  13.516   4.752  1.00  0.00    -0.383 N 
ATOM     12  H   UNL     1     -28.475  14.398   5.233  1.00  0.00    +0.158 HD
ATOM     13  H   UNL     1     -27.536  13.422   4.177  1.00  0.00    +0.158 HD
ENDBRANCH   4  11
BRANCH   8  14
ATOM     14  C   UNL     1     -26.708   8.125   7.040  1.00  0.00    +0.068 A 
ATOM     15  C   UNL     1     -25.505   7.410   6.959  1.00  0.00    +0.035 A 
ATOM     16  C   UNL     1     -27.779   7.578   7.774  1.00  0.00    +0.035 A 
ATOM     17  C   UNL     1     -25.369   6.173   7.602  1.00  0.00    +0.088 A 
ATOM     18  C   UNL     1     -27.649   6.344   8.418  1.00  0.00    +0.088 A 
ATOM     19  C   UNL     1     -26.442   5.643   8.329  1.00  0.00    +0.269 A 
BRANCH  19  20
ATOM     20  N   UNL     1     -26.298   4.347   9.003  1.00  0.00    +0.062 N 
ATOM     21  O   UNL     1     -27.221   3.974   9.741  1.00  0.00    -0.258 OA
ATOM     22  O   UNL     1     -25.262   3.701   8.794  1.00  0.00    -0.258 OA
ENDBRANCH  19  20
ENDBRANCH   8  14
TORSDOF 3
ENDMDL
MODEL 2
REMARK VINA RESULT:    -8.550      3.373      5.031
REMARK INTER + INTRA:          -9.742
REMARK INTER:                  -9.556
REMARK INTRA:                  -0.186
REMARK UNBOUND:                 0.057
REMARK SMILES Cc1nc(N)c2cnn(-c3ccc([N+](=O)[O-])cc3)c2n1
REMARK SMILES IDX 1 1 2 2 3 3 4 4 6 5 7 6 8 7 9 8 19 9 20 10 5 11 10 14 11 15
REMARK SMILES IDX 18 16 12 17 17 18 13 19 14 20 15 21 16 22
REMARK H PARENT 5 12 5 13
ROOT
ATOM      1  C   UNL     1     -25.036   6.995   6.930  1.00  0.00    +0.090 C 
ATOM      2  C   UNL     1     -25.920   8.182   6.686  1.00  0.00    +0.130 A 
ATOM      3  N   UNL     1     -25.313   9.317   6.281  1.00  0.00    -0.216 NA
ATOM      4  C   UNL     1     -26.060  10.404   6.017  1.00  0.00    +0.138 A 
ATOM      5  C   UNL     1     -27.443  10.317   6.170  1.00  0.00    +0.082 A 
ATOM      6  C   UNL     1     -28.556  11.152   6.005  1.00  0.00    +0.150 A 
ATOM      7  N   UNL     1     -29.707  10.551   6.302  1.00  0.00    -0.174 NA
ATOM      8  N   UNL     1     -29.349   9.276   6.656  1.00  0.00    -0.215 N 
ATOM      9  C   UNL     1     -27.967   9.104   6.586  1.00  0.00    +0.168 A 
ATOM     10  N   UNL     1     -27.243   7.999   6.857  1.00  0.00    -0.213 NA
ENDROOT
BRANCH   4  11
ATOM     11  N   UNL     1     -25.392  11.550   5.615  1.00  0.00    -0.383 N 
ATOM     12  H   UNL     1     -25.654  12.405   6.086  1.00  0.00    +0.158 HD
ATOM     13  H   UNL     1     -24.396  11.374   5.534  1.00  0.00    +0.158 HD
ENDBRANCH   4  11
BRANCH   8  14
ATOM     14  C   UNL     1     -30.366   8.341   7.032  1.00  0.00    +0.068 A 
ATOM     15  C   UNL     1     -30.174   7.408   8.060  1.00  0.00    +0.035 A 
ATOM     16  C   UNL     1     -31.597   8.358   6.346  1.00  0.00    +0.035 A 
ATOM     17  C   UNL     1     -31.191   6.507   8.402  1.00  0.00    +0.088 A 
ATOM     18  C   UNL     1     -32.616   7.461   6.683  1.00  0.00    +0.088 A 
ATOM     19  C   UNL     1     -32.409   6.537   7.711  1.00  0.00    +0.269 A 
BRANCH  19  20
ATOM     20  N   UNL     1     -33.475   5.593   8.071  1.00  0.00    +0.062 N 
ATOM     21  O   UNL     1     -34.601   5.783   7.589  1.00  0.00    -0.258 OA
ATOM     22  O   UNL     1     -33.186   4.661   8.834  1.00  0.00    -0.258 OA
ENDBRANCH  19  20
ENDBRANCH   8  14
TORSDOF 3
ENDMDL
MODEL 3
REMARK VINA RESULT:    -8.530      3.513      7.842
REMARK INTER + INTRA:          -9.719
REMARK INTER:                  -9.593
REMARK INTRA:                  -0.126
REMARK UNBOUND:                 0.057
REMARK SMILES Cc1nc(N)c2cnn(-c3ccc([N+](=O)[O-])cc3)c2n1
REMARK SMILES IDX 1 1 2 2 3 3 4 4 6 5 7 6 8 7 9 8 19 9 20 10 5 11 10 14 11 15
REMARK SMILES IDX 18 16 12 17 17 18 13 19 14 20 15 21 16 22
REMARK H PARENT 5 12 5 13
ROOT
ATOM      1  C   UNL     1     -29.943   2.135  10.132  1.00  0.00    +0.090 C 
ATOM      2  C   UNL     1     -28.504   2.492  10.356  1.00  0.00    +0.130 A 
ATOM      3  N   UNL     1     -27.800   1.684  11.177  1.00  0.00    -0.216 NA
ATOM      4  C   UNL     1     -26.496   1.937  11.389  1.00  0.00    +0.138 A 
ATOM      5  C   UNL     1     -25.916   3.031  10.747  1.00  0.00    +0.082 A 
ATOM      6  C   UNL     1     -24.653   3.634  10.671  1.00  0.00    +0.150 A 
ATOM      7  N   UNL     1     -24.635   4.708   9.882  1.00  0.00    -0.174 NA
ATOM      8  N   UNL     1     -25.917   4.808   9.407  1.00  0.00    -0.215 N 
ATOM      9  C   UNL     1     -26.725   3.795   9.922  1.00  0.00    +0.168 A 
ATOM     10  N   UNL     1     -28.033   3.563   9.691  1.00  0.00    -0.213 NA
ENDROOT
BRANCH   4  11
ATOM     11  N   UNL     1     -25.816   1.088  12.247  1.00  0.00    -0.383 N 
ATOM     12  H   UNL     1     -26.372   0.374  12.698  1.00  0.00    +0.158 HD
ATOM     13  H   UNL     1     -24.947   0.776  11.827  1.00  0.00    +0.158 HD
ENDBRANCH   4  11
BRANCH   8  14
ATOM     14  C   UNL     1     -26.250   5.869   8.505  1.00  0.00    +0.068 A 
ATOM     15  C   UNL     1     -27.536   6.422   8.452  1.00  0.00    +0.035 A 
ATOM     16  C   UNL     1     -25.254   6.370   7.644  1.00  0.00    +0.035 A 
ATOM     17  C   UNL     1     -27.827   7.460   7.557  1.00  0.00    +0.088 A 
ATOM     18  C   UNL     1     -25.538   7.406   6.748  1.00  0.00    +0.088 A 
ATOM     19  C   UNL     1     -26.826   7.949   6.707  1.00  0.00    +0.269 A 
BRANCH  19  20
ATOM     20  N   UNL     1     -27.131   9.037   5.770  1.00  0.00    +0.062 N 
ATOM     21  O   UNL     1     -27.982   9.871   6.111  1.00  0.00    -0.258 OA
ATOM     22  O   UNL     1     -26.521   9.057   4.692  1.00  0.00    -0.258 OA
ENDBRANCH  19  20
ENDBRANCH   8  14
TORSDOF 3
ENDMDL
MODEL 4
REMARK VINA RESULT:    -8.375      2.146      3.207
REMARK INTER + INTRA:          -9.541
REMARK INTER:                  -9.370
REMARK INTRA:                  -0.171
REMARK UNBOUND:                 0.057
REMARK SMILES Cc1nc(N)c2cnn(-c3ccc([N+](=O)[O-])cc3)c2n1
REMARK SMILES IDX 1 1 2 2 3 3 4 4 6 5 7 6 8 7 9 8 19 9 20 10 5 11 10 14 11 15
REMARK SMILES IDX 18 16 12 17 17 18 13 19 14 20 15 21 16 22
REMARK H PARENT 5 12 5 13
ROOT
ATOM      1  C   UNL     1     -30.191   8.985   7.267  1.00  0.00    +0.090 C 
ATOM      2  C   UNL     1     -28.733   8.827   6.953  1.00  0.00    +0.130 A 
ATOM      3  N   UNL     1     -28.170   9.788   6.191  1.00  0.00    -0.216 NA
ATOM      4  C   UNL     1     -26.858   9.715   5.905  1.00  0.00    +0.138 A 
ATOM      5  C   UNL     1     -26.122   8.643   6.410  1.00  0.00    +0.082 A 
ATOM      6  C   UNL     1     -24.797   8.192   6.377  1.00  0.00    +0.150 A 
ATOM      7  N   UNL     1     -24.615   7.058   7.053  1.00  0.00    -0.174 NA
ATOM      8  N   UNL     1     -25.851   6.760   7.564  1.00  0.00    -0.215 N 
ATOM      9  C   UNL     1     -26.796   7.712   7.185  1.00  0.00    +0.168 A 
ATOM     10  N   UNL     1     -28.108   7.762   7.488  1.00  0.00    -0.213 NA
ENDROOT
BRANCH   4  11
ATOM     11  N   UNL     1     -26.325  10.718   5.110  1.00  0.00    -0.383 N 
ATOM     12  H   UNL     1     -25.317  10.740   5.039  1.00  0.00    +0.158 HD
ATOM     13  H   UNL     1     -26.834  10.789   4.236  1.00  0.00    +0.158 HD
ENDBRANCH   4  11
BRANCH   8  14
ATOM     14  C   UNL     1     -26.012   5.585   8.367  1.00  0.00    +0.068 A 
ATOM     15  C   UNL     1     -27.181   4.814   8.328  1.00  0.00    +0.035 A 
ATOM     16  C   UNL     1     -24.965   5.195   9.225  1.00  0.00    +0.035 A 
ATOM     17  C   UNL     1     -27.306   3.670   9.127  1.00  0.00    +0.088 A 
ATOM     18  C   UNL     1     -25.083   4.054  10.025  1.00  0.00    +0.088 A 
ATOM     19  C   UNL     1     -26.255   3.294   9.974  1.00  0.00    +0.269 A 
BRANCH  19  20
ATOM     20  N   UNL     1     -26.386   2.095  10.812  1.00  0.00    +0.062 N 
ATOM     21  O   UNL     1     -25.506   1.883  11.658  1.00  0.00    -0.258 OA
ATOM     22  O   UNL     1     -27.370   1.366  10.623  1.00  0.00    -0.258 OA
ENDBRANCH  19  20
ENDBRANCH   8  14
TORSDOF 3
ENDMDL
MODEL 5
REMARK VINA RESULT:    -8.205      8.364     10.427
REMARK INTER + INTRA:          -9.346
REMARK INTER:                  -8.949
REMARK INTRA:                  -0.397
REMARK UNBOUND:                 0.057
REMARK SMILES Cc1nc(N)c2cnn(-c3ccc([N+](=O)[O-])cc3)c2n1
REMARK SMILES IDX 1 1 2 2 3 3 4 4 6 5 7 6 8 7 9 8 19 9 20 10 5 11 10 14 11 15
REMARK SMILES IDX 18 16 12 17 17 18 13 19 14 20 15 21 16 22
REMARK H PARENT 5 12 5 13
ROOT
ATOM      1  C   UNL     1     -38.898   5.505  10.295  1.00  0.00    +0.090 C 
ATOM      2  C   UNL     1     -37.878   4.413  10.165  1.00  0.00    +0.130 A 
ATOM      3  N   UNL     1     -38.185   3.227  10.730  1.00  0.00    -0.216 NA
ATOM      4  C   UNL     1     -37.322   2.202  10.618  1.00  0.00    +0.138 A 
ATOM      5  C   UNL     1     -36.134   2.403   9.915  1.00  0.00    +0.082 A 
ATOM      6  C   UNL     1     -35.006   1.654   9.556  1.00  0.00    +0.150 A 
ATOM      7  N   UNL     1     -34.117   2.355   8.852  1.00  0.00    -0.174 NA
ATOM      8  N   UNL     1     -34.681   3.598   8.727  1.00  0.00    -0.215 N 
ATOM      9  C   UNL     1     -35.917   3.658   9.370  1.00  0.00    +0.168 A 
ATOM     10  N   UNL     1     -36.764   4.702   9.467  1.00  0.00    -0.213 NA
ENDROOT
BRANCH   4  11
ATOM     11  N   UNL     1     -37.674   1.005  11.223  1.00  0.00    -0.383 N 
ATOM     12  H   UNL     1     -37.008   0.251  11.138  1.00  0.00    +0.158 HD
ATOM     13  H   UNL     1     -38.042   1.171  12.154  1.00  0.00    +0.158 HD
ENDBRANCH   4  11
BRANCH   8  14
ATOM     14  C   UNL     1     -33.980   4.615   8.003  1.00  0.00    +0.068 A 
ATOM     15  C   UNL     1     -32.907   5.320   8.565  1.00  0.00    +0.035 A 
ATOM     16  C   UNL     1     -34.382   4.919   6.688  1.00  0.00    +0.035 A 
ATOM     17  C   UNL     1     -32.242   6.309   7.828  1.00  0.00    +0.088 A 
ATOM     18  C   UNL     1     -33.723   5.906   5.948  1.00  0.00    +0.088 A 
ATOM     19  C   UNL     1     -32.654   6.600   6.522  1.00  0.00    +0.269 A 
BRANCH  19  20
ATOM     20  N   UNL     1     -31.957   7.636   5.750  1.00  0.00    +0.062 N 
ATOM     21  O   UNL     1     -30.901   8.089   6.214  1.00  0.00    -0.258 OA
ATOM     22  O   UNL     1     -32.467   7.999   4.681  1.00  0.00    -0.258 OA
ENDBRANCH  19  20
ENDBRANCH   8  14
TORSDOF 3
ENDMDL
MODEL 6
REMARK VINA RESULT:    -7.955      3.912      5.247
REMARK INTER + INTRA:          -9.061
REMARK INTER:                  -8.888
REMARK INTRA:                  -0.172
REMARK UNBOUND:                 0.057
REMARK SMILES Cc1nc(N)c2cnn(-c3ccc([N+](=O)[O-])cc3)c2n1
REMARK SMILES IDX 1 1 2 2 3 3 4 4 6 5 7 6 8 7 9 8 19 9 20 10 5 11 10 14 11 15
REMARK SMILES IDX 18 16 12 17 17 18 13 19 14 20 15 21 16 22
REMARK H PARENT 5 12 5 13
ROOT
ATOM      1  C   UNL     1     -26.277   7.783   6.913  1.00  0.00    +0.090 C 
ATOM      2  C   UNL     1     -27.498   8.651   6.829  1.00  0.00    +0.130 A 
ATOM      3  N   UNL     1     -27.311   9.920   6.410  1.00  0.00    -0.216 NA
ATOM      4  C   UNL     1     -28.375  10.734   6.285  1.00  0.00    +0.138 A 
ATOM      5  C   UNL     1     -29.639  10.232   6.593  1.00  0.00    +0.082 A 
ATOM      6  C   UNL     1     -30.961  10.695   6.597  1.00  0.00    +0.150 A 
ATOM      7  N   UNL     1     -31.835   9.772   6.998  1.00  0.00    -0.174 NA
ATOM      8  N   UNL     1     -31.073   8.662   7.248  1.00  0.00    -0.215 N 
ATOM      9  C   UNL     1     -29.722   8.914   7.010  1.00  0.00    +0.168 A 
ATOM     10  N   UNL     1     -28.674   8.077   7.144  1.00  0.00    -0.213 NA
ENDROOT
BRANCH   4  11
ATOM     11  N   UNL     1     -28.134  12.032   5.862  1.00  0.00    -0.383 N 
ATOM     12  H   UNL     1     -27.985  12.156   4.870  1.00  0.00    +0.158 HD
ATOM     13  H   UNL     1     -28.786  12.676   6.297  1.00  0.00    +0.158 HD
ENDBRANCH   4  11
BRANCH   8  14
ATOM     14  C   UNL     1     -31.710   7.460   7.695  1.00  0.00    +0.068 A 
ATOM     15  C   UNL     1     -31.119   6.615   8.645  1.00  0.00    +0.035 A 
ATOM     16  C   UNL     1     -32.968   7.115   7.163  1.00  0.00    +0.035 A 
ATOM     17  C   UNL     1     -31.771   5.447   9.061  1.00  0.00    +0.088 A 
ATOM     18  C   UNL     1     -33.624   5.950   7.574  1.00  0.00    +0.088 A 
ATOM     19  C   UNL     1     -33.022   5.118   8.523  1.00  0.00    +0.269 A 
BRANCH  19  20
ATOM     20  N   UNL     1     -33.705   3.894   8.959  1.00  0.00    +0.062 N 
ATOM     21  O   UNL     1     -34.849   4.004   9.421  1.00  0.00    -0.258 OA
ATOM     22  O   UNL     1     -33.096   2.821   8.839  1.00  0.00    -0.258 OA
ENDBRANCH  19  20
ENDBRANCH   8  14
TORSDOF 3
ENDMDL
MODEL 7
REMARK VINA RESULT:    -7.787      2.790      4.272
REMARK INTER + INTRA:          -8.867
REMARK INTER:                  -8.683
REMARK INTRA:                  -0.184
REMARK UNBOUND:                 0.057
REMARK SMILES Cc1nc(N)c2cnn(-c3ccc([N+](=O)[O-])cc3)c2n1
REMARK SMILES IDX 1 1 2 2 3 3 4 4 6 5 7 6 8 7 9 8 19 9 20 10 5 11 10 14 11 15
REMARK SMILES IDX 18 16 12 17 17 18 13 19 14 20 15 21 16 22
REMARK H PARENT 5 12 5 13
ROOT
ATOM      1  C   UNL     1     -31.536   6.318   8.659  1.00  0.00    +0.090 C 
ATOM      2  C   UNL     1     -30.179   6.784   8.223  1.00  0.00    +0.130 A 
ATOM      3  N   UNL     1     -30.127   7.951   7.547  1.00  0.00    -0.216 NA
ATOM      4  C   UNL     1     -28.933   8.434   7.159  1.00  0.00    +0.138 A 
ATOM      5  C   UNL     1     -27.785   7.707   7.473  1.00  0.00    +0.082 A 
ATOM      6  C   UNL     1     -26.402   7.829   7.288  1.00  0.00    +0.150 A 
ATOM      7  N   UNL     1     -25.715   6.810   7.803  1.00  0.00    -0.174 NA
ATOM      8  N   UNL     1     -26.669   6.000   8.362  1.00  0.00    -0.215 N 
ATOM      9  C   UNL     1     -27.947   6.523   8.173  1.00  0.00    +0.168 A 
ATOM     10  N   UNL     1     -29.131   6.017   8.575  1.00  0.00    -0.213 NA
ENDROOT
BRANCH   4  11
ATOM     11  N   UNL     1     -28.929   9.630   6.459  1.00  0.00    -0.383 N 
ATOM     12  H   UNL     1     -28.285  10.335   6.787  1.00  0.00    +0.158 HD
ATOM     13  H   UNL     1     -28.929   9.459   5.459  1.00  0.00    +0.158 HD
ENDBRANCH   4  11
BRANCH   8  14
ATOM     14  C   UNL     1     -26.265   4.795   9.022  1.00  0.00    +0.068 A 
ATOM     15  C   UNL     1     -27.014   3.614   8.934  1.00  0.00    +0.035 A 
ATOM     16  C   UNL     1     -25.082   4.798   9.785  1.00  0.00    +0.035 A 
ATOM     17  C   UNL     1     -26.589   2.452   9.593  1.00  0.00    +0.088 A 
ATOM     18  C   UNL     1     -24.653   3.642  10.446  1.00  0.00    +0.088 A 
ATOM     19  C   UNL     1     -25.410   2.471  10.348  1.00  0.00    +0.269 A 
BRANCH  19  20
ATOM     20  N   UNL     1     -24.966   1.254  11.038  1.00  0.00    +0.062 N 
ATOM     21  O   UNL     1     -23.768   1.169  11.346  1.00  0.00    -0.258 OA
ATOM     22  O   UNL     1     -25.815   0.383  11.274  1.00  0.00    -0.258 OA
ENDBRANCH  19  20
ENDBRANCH   8  14
TORSDOF 3
ENDMDL
MODEL 8
REMARK VINA RESULT:    -7.721      5.834      9.555
REMARK INTER + INTRA:          -8.792
REMARK INTER:                  -8.833
REMARK INTRA:                   0.041
REMARK UNBOUND:                 0.057
REMARK SMILES Cc1nc(N)c2cnn(-c3ccc([N+](=O)[O-])cc3)c2n1
REMARK SMILES IDX 1 1 2 2 3 3 4 4 6 5 7 6 8 7 9 8 19 9 20 10 5 11 10 14 11 15
REMARK SMILES IDX 18 16 12 17 17 18 13 19 14 20 15 21 16 22
REMARK H PARENT 5 12 5 13
ROOT
ATOM      1  C   UNL     1     -32.223   1.303  10.398  1.00  0.00    +0.090 C 
ATOM      2  C   UNL     1     -31.051   1.086  11.308  1.00  0.00    +0.130 A 
ATOM      3  N   UNL     1     -31.230   0.227  12.333  1.00  0.00    -0.216 NA
ATOM      4  C   UNL     1     -30.203  -0.031  13.162  1.00  0.00    +0.138 A 
ATOM      5  C   UNL     1     -28.982   0.601  12.929  1.00  0.00    +0.082 A 
ATOM      6  C   UNL     1     -27.703   0.621  13.500  1.00  0.00    +0.150 A 
ATOM      7  N   UNL     1     -26.860   1.435  12.864  1.00  0.00    -0.174 NA
ATOM      8  N   UNL     1     -27.597   1.953  11.831  1.00  0.00    -0.215 N 
ATOM      9  C   UNL     1     -28.902   1.462  11.846  1.00  0.00    +0.168 A 
ATOM     10  N   UNL     1     -29.914   1.738  11.000  1.00  0.00    -0.213 NA
ENDROOT
BRANCH   4  11
ATOM     11  N   UNL     1     -30.436  -0.911  14.208  1.00  0.00    -0.383 N 
ATOM     12  H   UNL     1     -29.639  -1.441  14.529  1.00  0.00    +0.158 HD
ATOM     13  H   UNL     1     -30.995  -0.468  14.929  1.00  0.00    +0.158 HD
ENDBRANCH   4  11
BRANCH   8  14
ATOM     14  C   UNL     1     -26.981   2.875  10.925  1.00  0.00    +0.068 A 
ATOM     15  C   UNL     1     -25.745   3.475  11.202  1.00  0.00    +0.035 A 
ATOM     16  C   UNL     1     -27.638   3.192   9.720  1.00  0.00    +0.035 A 
ATOM     17  C   UNL     1     -25.171   4.373  10.293  1.00  0.00    +0.088 A 
ATOM     18  C   UNL     1     -27.071   4.088   8.809  1.00  0.00    +0.088 A 
ATOM     19  C   UNL     1     -25.836   4.677   9.099  1.00  0.00    +0.269 A 
BRANCH  19  20
ATOM     20  N   UNL     1     -25.234   5.619   8.147  1.00  0.00    +0.062 N 
ATOM     21  O   UNL     1     -24.673   6.623   8.606  1.00  0.00    -0.258 OA
ATOM     22  O   UNL     1     -25.323   5.353   6.940  1.00  0.00    -0.258 OA
ENDBRANCH  19  20
ENDBRANCH   8  14
TORSDOF 3
ENDMDL
MODEL 9
REMARK VINA RESULT:    -7.230      9.786     11.569
REMARK INTER + INTRA:          -8.229
REMARK INTER:                  -8.170
REMARK INTRA:                  -0.059
REMARK UNBOUND:                 0.057
REMARK SMILES Cc1nc(N)c2cnn(-c3ccc([N+](=O)[O-])cc3)c2n1
REMARK SMILES IDX 1 1 2 2 3 3 4 4 6 5 7 6 8 7 9 8 19 9 20 10 5 11 10 14 11 15
REMARK SMILES IDX 18 16 12 17 17 18 13 19 14 20 15 21 16 22
REMARK H PARENT 5 12 5 13
ROOT
ATOM      1  C   UNL     1     -31.581   2.501   9.780  1.00  0.00    +0.090 C 
ATOM      2  C   UNL     1     -32.678   3.482   9.492  1.00  0.00    +0.130 A 
ATOM      3  N   UNL     1     -32.316   4.638   8.898  1.00  0.00    -0.216 NA
ATOM      4  C   UNL     1     -33.263   5.542   8.588  1.00  0.00    +0.138 A 
ATOM      5  C   UNL     1     -34.592   5.248   8.891  1.00  0.00    +0.082 A 
ATOM      6  C   UNL     1     -35.845   5.858   8.745  1.00  0.00    +0.150 A 
ATOM      7  N   UNL     1     -36.843   5.119   9.227  1.00  0.00    -0.174 NA
ATOM      8  N   UNL     1     -36.237   3.979   9.688  1.00  0.00    -0.215 N 
ATOM      9  C   UNL     1     -34.857   4.031   9.497  1.00  0.00    +0.168 A 
ATOM     10  N   UNL     1     -33.929   3.107   9.819  1.00  0.00    -0.213 NA
ENDROOT
BRANCH   4  11
ATOM     11  N   UNL     1     -32.844   6.720   7.989  1.00  0.00    -0.383 N 
ATOM     12  H   UNL     1     -32.426   6.628   7.073  1.00  0.00    +0.158 HD
ATOM     13  H   UNL     1     -33.551   7.441   8.085  1.00  0.00    +0.158 HD
ENDBRANCH   4  11
BRANCH   8  14
ATOM     14  C   UNL     1     -37.039   2.947  10.273  1.00  0.00    +0.068 A 
ATOM     15  C   UNL     1     -36.567   1.636  10.423  1.00  0.00    +0.035 A 
ATOM     16  C   UNL     1     -38.342   3.257  10.707  1.00  0.00    +0.035 A 
ATOM     17  C   UNL     1     -37.378   0.650  11.000  1.00  0.00    +0.088 A 
ATOM     18  C   UNL     1     -39.157   2.278  11.284  1.00  0.00    +0.088 A 
ATOM     19  C   UNL     1     -38.672   0.974  11.428  1.00  0.00    +0.269 A 
BRANCH  19  20
ATOM     20  N   UNL     1     -39.521  -0.059  12.032  1.00  0.00    +0.062 N 
ATOM     21  O   UNL     1     -38.961  -1.003  12.608  1.00  0.00    -0.258 OA
ATOM     22  O   UNL     1     -40.749   0.072  11.931  1.00  0.00    -0.258 OA
ENDBRANCH  19  20
ENDBRANCH   8  14
TORSDOF 3
ENDMDL
