REMARK SMILES N#Cc1c2ccccc2nc2ccccc12
REMARK SMILES IDX 1 1 2 2 3 3 4 4 5 5 6 6 7 7 8 8 9 9 10 10 11 11 12 12 13 13
REMARK SMILES IDX 14 14 15 15 16 16
REMARK H PARENT
ROOT
ATOM      1  N   UNL     1       0.091   3.775   0.252  1.00  0.00    -0.192 NA
ATOM      2  C   UNL     1       0.063   2.617   0.174  1.00  0.00    +0.101 C 
ATOM      3  C   UNL     1       0.028   1.183   0.079  1.00  0.00    +0.071 A 
ATOM      4  C   UNL     1      -1.220   0.523  -0.031  1.00  0.00    +0.019 A 
ATOM      5  C   UNL     1      -2.483   1.173  -0.056  1.00  0.00    +0.012 A 
ATOM      6  C   UNL     1      -3.668   0.447  -0.167  1.00  0.00    +0.001 A 
ATOM      7  C   UNL     1      -3.613  -0.935  -0.255  1.00  0.00    +0.002 A 
ATOM      8  C   UNL     1      -2.375  -1.580  -0.231  1.00  0.00    +0.029 A 
ATOM      9  C   UNL     1      -1.182  -0.878  -0.121  1.00  0.00    +0.072 A 
ATOM     10  N   UNL     1      -0.038  -1.577  -0.105  1.00  0.00    -0.248 NA
ATOM     11  C   UNL     1       1.138  -0.942  -0.001  1.00  0.00    +0.072 A 
ATOM     12  C   UNL     1       2.296  -1.708   0.011  1.00  0.00    +0.029 A 
ATOM     13  C   UNL     1       3.564  -1.133   0.117  1.00  0.00    +0.002 A 
ATOM     14  C   UNL     1       3.684   0.245   0.213  1.00  0.00    +0.001 A 
ATOM     15  C   UNL     1       2.536   1.035   0.203  1.00  0.00    +0.012 A 
ATOM     16  C   UNL     1       1.244   0.455   0.096  1.00  0.00    +0.019 A 
ENDROOT
TORSDOF 0
