MODEL 1
REMARK VINA RESULT:    -9.580      0.000      0.000
REMARK INTER + INTRA:         -14.946
REMARK INTER:                 -13.500
REMARK INTRA:                  -1.446
REMARK UNBOUND:                -1.446
REMARK SMILES O=C(CC(CC(=O)c1ccccc1)c1ccncc1)c1ccccc1
REMARK SMILES IDX 4 1 3 2 2 3 1 4 20 5 21 6 25 7 22 8 24 9 23 10 5 11 6 12
REMARK SMILES IDX 7 13 8 14 9 15 13 16 10 17 12 18 11 19 14 20 15 21 19 22
REMARK SMILES IDX 16 23 18 24 17 25
REMARK H PARENT
ROOT
ATOM      1  C   UNL     1     -29.512   9.941   6.763  1.00  0.00    +0.035 C 
ENDROOT
BRANCH   1   2
ATOM      2  C   UNL     1     -31.011  10.229   6.526  1.00  0.00    +0.090 C 
BRANCH   2   3
ATOM      3  C   UNL     1     -32.001   9.404   7.333  1.00  0.00    +0.163 C 
ATOM      4  O   UNL     1     -32.419   9.762   8.433  1.00  0.00    -0.294 OA
BRANCH   3   5
ATOM      5  C   UNL     1     -32.521   8.132   6.750  1.00  0.00    +0.018 A 
ATOM      6  C   UNL     1     -32.446   7.957   5.362  1.00  0.00    +0.012 A 
ATOM      7  C   UNL     1     -33.059   7.112   7.544  1.00  0.00    +0.012 A 
ATOM      8  C   UNL     1     -32.918   6.782   4.772  1.00  0.00    +0.001 A 
ATOM      9  C   UNL     1     -33.531   5.938   6.950  1.00  0.00    +0.001 A 
ATOM     10  C   UNL     1     -33.463   5.776   5.567  1.00  0.00    +0.000 A 
ENDBRANCH   3   5
ENDBRANCH   2   3
ENDBRANCH   1   2
BRANCH   1  11
ATOM     11  C   UNL     1     -29.080   8.510   6.386  1.00  0.00    +0.090 C 
BRANCH  11  12
ATOM     12  C   UNL     1     -28.756   7.662   7.608  1.00  0.00    +0.163 C 
ATOM     13  O   UNL     1     -29.590   7.415   8.478  1.00  0.00    -0.294 OA
BRANCH  12  14
ATOM     14  C   UNL     1     -27.386   7.076   7.730  1.00  0.00    +0.018 A 
ATOM     15  C   UNL     1     -26.270   7.648   7.106  1.00  0.00    +0.012 A 
ATOM     16  C   UNL     1     -27.227   5.905   8.484  1.00  0.00    +0.012 A 
ATOM     17  C   UNL     1     -25.010   7.060   7.248  1.00  0.00    +0.001 A 
ATOM     18  C   UNL     1     -25.967   5.321   8.623  1.00  0.00    +0.001 A 
ATOM     19  C   UNL     1     -24.860   5.900   8.006  1.00  0.00    +0.000 A 
ENDBRANCH  12  14
ENDBRANCH  11  12
ENDBRANCH   1  11
BRANCH   1  20
ATOM     20  C   UNL     1     -28.615  11.009   6.150  1.00  0.00    -0.041 A 
ATOM     21  C   UNL     1     -29.141  12.275   5.865  1.00  0.00    +0.024 A 
ATOM     22  C   UNL     1     -27.266  10.786   5.859  1.00  0.00    +0.024 A 
ATOM     23  C   UNL     1     -28.317  13.237   5.303  1.00  0.00    +0.111 A 
ATOM     24  C   UNL     1     -26.522  11.812   5.292  1.00  0.00    +0.111 A 
ATOM     25  N   UNL     1     -27.018  13.032   5.002  1.00  0.00    -0.265 NA
ENDBRANCH   1  20
TORSDOF 7
ENDMDL
MODEL 2
REMARK VINA RESULT:    -9.435      3.176      6.445
REMARK INTER + INTRA:         -14.742
REMARK INTER:                 -11.789
REMARK INTRA:                  -2.953
REMARK UNBOUND:                -1.446
REMARK SMILES O=C(CC(CC(=O)c1ccccc1)c1ccncc1)c1ccccc1
REMARK SMILES IDX 4 1 3 2 2 3 1 4 20 5 21 6 25 7 22 8 24 9 23 10 5 11 6 12
REMARK SMILES IDX 7 13 8 14 9 15 13 16 10 17 12 18 11 19 14 20 15 21 19 22
REMARK SMILES IDX 16 23 18 24 17 25
REMARK H PARENT
ROOT
ATOM      1  C   UNL     1     -31.773   7.077   7.313  1.00  0.00    +0.035 C 
ENDROOT
BRANCH   1   2
ATOM      2  C   UNL     1     -31.899   6.622   8.783  1.00  0.00    +0.090 C 
BRANCH   2   3
ATOM      3  C   UNL     1     -31.397   5.225   9.112  1.00  0.00    +0.163 C 
ATOM      4  O   UNL     1     -30.252   4.856   8.857  1.00  0.00    -0.294 OA
BRANCH   3   5
ATOM      5  C   UNL     1     -32.314   4.277   9.811  1.00  0.00    +0.018 A 
ATOM      6  C   UNL     1     -33.275   4.804  10.684  1.00  0.00    +0.012 A 
ATOM      7  C   UNL     1     -32.255   2.894   9.608  1.00  0.00    +0.012 A 
ATOM      8  C   UNL     1     -34.156   3.956  11.359  1.00  0.00    +0.001 A 
ATOM      9  C   UNL     1     -33.137   2.048  10.286  1.00  0.00    +0.001 A 
ATOM     10  C   UNL     1     -34.084   2.579  11.161  1.00  0.00    +0.000 A 
ENDBRANCH   3   5
ENDBRANCH   2   3
ENDBRANCH   1   2
BRANCH   1  11
ATOM     11  C   UNL     1     -33.125   7.300   6.606  1.00  0.00    +0.090 C 
BRANCH  11  12
ATOM     12  C   UNL     1     -33.775   5.994   6.172  1.00  0.00    +0.163 C 
ATOM     13  O   UNL     1     -33.501   5.446   5.105  1.00  0.00    -0.294 OA
BRANCH  12  14
ATOM     14  C   UNL     1     -34.748   5.338   7.096  1.00  0.00    +0.018 A 
ATOM     15  C   UNL     1     -35.521   6.067   8.009  1.00  0.00    +0.012 A 
ATOM     16  C   UNL     1     -34.873   3.942   7.050  1.00  0.00    +0.012 A 
ATOM     17  C   UNL     1     -36.416   5.404   8.854  1.00  0.00    +0.001 A 
ATOM     18  C   UNL     1     -35.768   3.285   7.896  1.00  0.00    +0.001 A 
ATOM     19  C   UNL     1     -36.539   4.017   8.796  1.00  0.00    +0.000 A 
ENDBRANCH  12  14
ENDBRANCH  11  12
ENDBRANCH   1  11
BRANCH   1  20
ATOM     20  C   UNL     1     -30.821   8.257   7.153  1.00  0.00    -0.041 A 
ATOM     21  C   UNL     1     -31.334   9.524   6.854  1.00  0.00    +0.024 A 
ATOM     22  C   UNL     1     -29.436   8.134   7.301  1.00  0.00    +0.024 A 
ATOM     23  C   UNL     1     -30.458  10.589   6.707  1.00  0.00    +0.111 A 
ATOM     24  C   UNL     1     -28.640   9.259   7.130  1.00  0.00    +0.111 A 
ATOM     25  N   UNL     1     -29.118  10.483   6.831  1.00  0.00    -0.265 NA
ENDBRANCH   1  20
TORSDOF 7
ENDMDL
MODEL 3
REMARK VINA RESULT:    -9.101      5.340      8.941
REMARK INTER + INTRA:         -14.271
REMARK INTER:                 -12.952
REMARK INTRA:                  -1.319
REMARK UNBOUND:                -1.446
REMARK SMILES O=C(CC(CC(=O)c1ccccc1)c1ccncc1)c1ccccc1
REMARK SMILES IDX 4 1 3 2 2 3 1 4 20 5 21 6 25 7 22 8 24 9 23 10 5 11 6 12
REMARK SMILES IDX 7 13 8 14 9 15 13 16 10 17 12 18 11 19 14 20 15 21 19 22
REMARK SMILES IDX 16 23 18 24 17 25
REMARK H PARENT
ROOT
ATOM      1  C   UNL     1     -33.956   4.196  10.416  1.00  0.00    +0.035 C 
ENDROOT
BRANCH   1   2
ATOM      2  C   UNL     1     -34.103   2.793  11.045  1.00  0.00    +0.090 C 
BRANCH   2   3
ATOM      3  C   UNL     1     -33.206   1.698  10.488  1.00  0.00    +0.163 C 
ATOM      4  O   UNL     1     -33.517   1.022   9.508  1.00  0.00    -0.294 OA
BRANCH   3   5
ATOM      5  C   UNL     1     -31.878   1.462  11.127  1.00  0.00    +0.018 A 
ATOM      6  C   UNL     1     -31.849   0.981  12.443  1.00  0.00    +0.012 A 
ATOM      7  C   UNL     1     -30.673   1.686  10.450  1.00  0.00    +0.012 A 
ATOM      8  C   UNL     1     -30.629   0.744  13.081  1.00  0.00    +0.001 A 
ATOM      9  C   UNL     1     -29.455   1.449  11.092  1.00  0.00    +0.001 A 
ATOM     10  C   UNL     1     -29.434   0.981  12.405  1.00  0.00    +0.000 A 
ENDBRANCH   3   5
ENDBRANCH   2   3
ENDBRANCH   1   2
BRANCH   1  11
ATOM     11  C   UNL     1     -33.308   4.193   9.017  1.00  0.00    +0.090 C 
BRANCH  11  12
ATOM     12  C   UNL     1     -32.537   5.475   8.733  1.00  0.00    +0.163 C 
ATOM     13  O   UNL     1     -31.774   5.979   9.556  1.00  0.00    -0.294 OA
BRANCH  12  14
ATOM     14  C   UNL     1     -32.683   6.116   7.392  1.00  0.00    +0.018 A 
ATOM     15  C   UNL     1     -31.885   7.193   6.987  1.00  0.00    +0.012 A 
ATOM     16  C   UNL     1     -33.668   5.625   6.523  1.00  0.00    +0.012 A 
ATOM     17  C   UNL     1     -32.064   7.761   5.722  1.00  0.00    +0.001 A 
ATOM     18  C   UNL     1     -33.843   6.195   5.260  1.00  0.00    +0.001 A 
ATOM     19  C   UNL     1     -33.039   7.261   4.861  1.00  0.00    +0.000 A 
ENDBRANCH  12  14
ENDBRANCH  11  12
ENDBRANCH   1  11
BRANCH   1  20
ATOM     20  C   UNL     1     -35.257   4.988  10.462  1.00  0.00    -0.041 A 
ATOM     21  C   UNL     1     -36.075   5.043   9.328  1.00  0.00    +0.024 A 
ATOM     22  C   UNL     1     -35.687   5.668  11.606  1.00  0.00    +0.024 A 
ATOM     23  C   UNL     1     -37.254   5.770   9.380  1.00  0.00    +0.111 A 
ATOM     24  C   UNL     1     -36.882   6.372  11.560  1.00  0.00    +0.111 A 
ATOM     25  N   UNL     1     -37.673   6.444  10.471  1.00  0.00    -0.265 NA
ENDBRANCH   1  20
TORSDOF 7
ENDMDL
MODEL 4
REMARK VINA RESULT:    -9.057      5.602      9.471
REMARK INTER + INTRA:         -14.210
REMARK INTER:                 -12.560
REMARK INTRA:                  -1.650
REMARK UNBOUND:                -1.446
REMARK SMILES O=C(CC(CC(=O)c1ccccc1)c1ccncc1)c1ccccc1
REMARK SMILES IDX 4 1 3 2 2 3 1 4 20 5 21 6 25 7 22 8 24 9 23 10 5 11 6 12
REMARK SMILES IDX 7 13 8 14 9 15 13 16 10 17 12 18 11 19 14 20 15 21 19 22
REMARK SMILES IDX 16 23 18 24 17 25
REMARK H PARENT
ROOT
ATOM      1  C   UNL     1     -33.114   3.727   9.457  1.00  0.00    +0.035 C 
ENDROOT
BRANCH   1   2
ATOM      2  C   UNL     1     -31.761   2.993   9.577  1.00  0.00    +0.090 C 
BRANCH   2   3
ATOM      3  C   UNL     1     -31.798   1.579  10.136  1.00  0.00    +0.163 C 
ATOM      4  O   UNL     1     -32.378   0.657   9.565  1.00  0.00    -0.294 OA
BRANCH   3   5
ATOM      5  C   UNL     1     -31.065   1.287  11.403  1.00  0.00    +0.018 A 
ATOM      6  C   UNL     1     -29.669   1.406  11.407  1.00  0.00    +0.012 A 
ATOM      7  C   UNL     1     -31.727   0.920  12.581  1.00  0.00    +0.012 A 
ATOM      8  C   UNL     1     -28.941   1.144  12.570  1.00  0.00    +0.001 A 
ATOM      9  C   UNL     1     -30.995   0.659  13.742  1.00  0.00    +0.001 A 
ATOM     10  C   UNL     1     -29.606   0.768  13.735  1.00  0.00    +0.000 A 
ENDBRANCH   3   5
ENDBRANCH   2   3
ENDBRANCH   1   2
BRANCH   1  11
ATOM     11  C   UNL     1     -33.854   3.906  10.798  1.00  0.00    +0.090 C 
BRANCH  11  12
ATOM     12  C   UNL     1     -35.286   3.395  10.743  1.00  0.00    +0.163 C 
ATOM     13  O   UNL     1     -35.576   2.224  10.984  1.00  0.00    -0.294 OA
BRANCH  12  14
ATOM     14  C   UNL     1     -36.380   4.362  10.424  1.00  0.00    +0.018 A 
ATOM     15  C   UNL     1     -37.505   3.997   9.674  1.00  0.00    +0.012 A 
ATOM     16  C   UNL     1     -36.257   5.681  10.882  1.00  0.00    +0.012 A 
ATOM     17  C   UNL     1     -38.500   4.940   9.400  1.00  0.00    +0.001 A 
ATOM     18  C   UNL     1     -37.253   6.620  10.606  1.00  0.00    +0.001 A 
ATOM     19  C   UNL     1     -38.374   6.248   9.867  1.00  0.00    +0.000 A 
ENDBRANCH  12  14
ENDBRANCH  11  12
ENDBRANCH   1  11
BRANCH   1  20
ATOM     20  C   UNL     1     -32.998   5.026   8.669  1.00  0.00    -0.041 A 
ATOM     21  C   UNL     1     -31.810   5.764   8.722  1.00  0.00    +0.024 A 
ATOM     22  C   UNL     1     -34.036   5.522   7.874  1.00  0.00    +0.024 A 
ATOM     23  C   UNL     1     -31.717   6.947   8.004  1.00  0.00    +0.111 A 
ATOM     24  C   UNL     1     -33.850   6.719   7.195  1.00  0.00    +0.111 A 
ATOM     25  N   UNL     1     -32.716   7.446   7.246  1.00  0.00    -0.265 NA
ENDBRANCH   1  20
TORSDOF 7
ENDMDL
MODEL 5
REMARK VINA RESULT:    -8.940      7.482     10.789
REMARK INTER + INTRA:         -14.045
REMARK INTER:                 -11.801
REMARK INTRA:                  -2.244
REMARK UNBOUND:                -1.446
REMARK SMILES O=C(CC(CC(=O)c1ccccc1)c1ccncc1)c1ccccc1
REMARK SMILES IDX 4 1 3 2 2 3 1 4 20 5 21 6 25 7 22 8 24 9 23 10 5 11 6 12
REMARK SMILES IDX 7 13 8 14 9 15 13 16 10 17 12 18 11 19 14 20 15 21 19 22
REMARK SMILES IDX 16 23 18 24 17 25
REMARK H PARENT
ROOT
ATOM      1  C   UNL     1     -27.475  -0.504  11.131  1.00  0.00    +0.035 C 
ENDROOT
BRANCH   1   2
ATOM      2  C   UNL     1     -27.191   0.275  12.433  1.00  0.00    +0.090 C 
BRANCH   2   3
ATOM      3  C   UNL     1     -27.653   1.723  12.478  1.00  0.00    +0.163 C 
ATOM      4  O   UNL     1     -28.431   2.144  13.333  1.00  0.00    -0.294 OA
BRANCH   3   5
ATOM      5  C   UNL     1     -27.108   2.683  11.473  1.00  0.00    +0.018 A 
ATOM      6  C   UNL     1     -27.764   2.799  10.240  1.00  0.00    +0.012 A 
ATOM      7  C   UNL     1     -25.984   3.476  11.731  1.00  0.00    +0.012 A 
ATOM      8  C   UNL     1     -27.291   3.686   9.270  1.00  0.00    +0.001 A 
ATOM      9  C   UNL     1     -25.513   4.361  10.758  1.00  0.00    +0.001 A 
ATOM     10  C   UNL     1     -26.164   4.464   9.529  1.00  0.00    +0.000 A 
ENDBRANCH   3   5
ENDBRANCH   2   3
ENDBRANCH   1   2
BRANCH   1  11
ATOM     11  C   UNL     1     -26.524  -1.693  10.889  1.00  0.00    +0.090 C 
BRANCH  11  12
ATOM     12  C   UNL     1     -25.533  -1.424   9.765  1.00  0.00    +0.163 C 
ATOM     13  O   UNL     1     -25.716  -1.825   8.617  1.00  0.00    -0.294 OA
BRANCH  12  14
ATOM     14  C   UNL     1     -24.317  -0.608  10.063  1.00  0.00    +0.018 A 
ATOM     15  C   UNL     1     -23.134  -1.180  10.548  1.00  0.00    +0.012 A 
ATOM     16  C   UNL     1     -24.379   0.778   9.864  1.00  0.00    +0.012 A 
ATOM     17  C   UNL     1     -22.024  -0.373  10.814  1.00  0.00    +0.001 A 
ATOM     18  C   UNL     1     -23.269   1.580  10.131  1.00  0.00    +0.001 A 
ATOM     19  C   UNL     1     -22.092   1.003  10.604  1.00  0.00    +0.000 A 
ENDBRANCH  12  14
ENDBRANCH  11  12
ENDBRANCH   1  11
BRANCH   1  20
ATOM     20  C   UNL     1     -28.944  -0.886  10.996  1.00  0.00    -0.041 A 
ATOM     21  C   UNL     1     -29.563  -1.627  12.010  1.00  0.00    +0.024 A 
ATOM     22  C   UNL     1     -29.722  -0.519   9.893  1.00  0.00    +0.024 A 
ATOM     23  C   UNL     1     -30.899  -1.973  11.874  1.00  0.00    +0.111 A 
ATOM     24  C   UNL     1     -31.052  -0.916   9.846  1.00  0.00    +0.111 A 
ATOM     25  N   UNL     1     -31.657  -1.640  10.809  1.00  0.00    -0.265 NA
ENDBRANCH   1  20
TORSDOF 7
ENDMDL
MODEL 6
REMARK VINA RESULT:    -8.915      5.656      8.852
REMARK INTER + INTRA:         -14.009
REMARK INTER:                 -12.635
REMARK INTRA:                  -1.375
REMARK UNBOUND:                -1.446
REMARK SMILES O=C(CC(CC(=O)c1ccccc1)c1ccncc1)c1ccccc1
REMARK SMILES IDX 4 1 3 2 2 3 1 4 20 5 21 6 25 7 22 8 24 9 23 10 5 11 6 12
REMARK SMILES IDX 7 13 8 14 9 15 13 16 10 17 12 18 11 19 14 20 15 21 19 22
REMARK SMILES IDX 16 23 18 24 17 25
REMARK H PARENT
ROOT
ATOM      1  C   UNL     1     -33.537   3.237  10.048  1.00  0.00    +0.035 C 
ENDROOT
BRANCH   1   2
ATOM      2  C   UNL     1     -34.589   3.571  11.128  1.00  0.00    +0.090 C 
BRANCH   2   3
ATOM      3  C   UNL     1     -36.017   3.125  10.853  1.00  0.00    +0.163 C 
ATOM      4  O   UNL     1     -36.371   1.951  10.940  1.00  0.00    -0.294 OA
BRANCH   3   5
ATOM      5  C   UNL     1     -37.039   4.157  10.508  1.00  0.00    +0.018 A 
ATOM      6  C   UNL     1     -36.663   5.506  10.553  1.00  0.00    +0.012 A 
ATOM      7  C   UNL     1     -38.343   3.819  10.128  1.00  0.00    +0.012 A 
ATOM      8  C   UNL     1     -37.585   6.507  10.237  1.00  0.00    +0.001 A 
ATOM      9  C   UNL     1     -39.262   4.823   9.813  1.00  0.00    +0.001 A 
ATOM     10  C   UNL     1     -38.884   6.163   9.870  1.00  0.00    +0.000 A 
ENDBRANCH   3   5
ENDBRANCH   2   3
ENDBRANCH   1   2
BRANCH   1  11
ATOM     11  C   UNL     1     -32.964   4.472   9.325  1.00  0.00    +0.090 C 
BRANCH  11  12
ATOM     12  C   UNL     1     -33.744   4.822   8.066  1.00  0.00    +0.163 C 
ATOM     13  O   UNL     1     -34.822   4.295   7.793  1.00  0.00    -0.294 OA
BRANCH  12  14
ATOM     14  C   UNL     1     -33.198   5.871   7.153  1.00  0.00    +0.018 A 
ATOM     15  C   UNL     1     -32.253   6.813   7.578  1.00  0.00    +0.012 A 
ATOM     16  C   UNL     1     -33.666   5.914   5.833  1.00  0.00    +0.012 A 
ATOM     17  C   UNL     1     -31.775   7.777   6.685  1.00  0.00    +0.001 A 
ATOM     18  C   UNL     1     -33.186   6.878   4.944  1.00  0.00    +0.001 A 
ATOM     19  C   UNL     1     -32.240   7.807   5.372  1.00  0.00    +0.000 A 
ENDBRANCH  12  14
ENDBRANCH  11  12
ENDBRANCH   1  11
BRANCH   1  20
ATOM     20  C   UNL     1     -32.453   2.301  10.568  1.00  0.00    -0.041 A 
ATOM     21  C   UNL     1     -32.693   1.533  11.713  1.00  0.00    +0.024 A 
ATOM     22  C   UNL     1     -31.210   2.164   9.942  1.00  0.00    +0.024 A 
ATOM     23  C   UNL     1     -31.697   0.688  12.180  1.00  0.00    +0.111 A 
ATOM     24  C   UNL     1     -30.275   1.294  10.487  1.00  0.00    +0.111 A 
ATOM     25  N   UNL     1     -30.488   0.557  11.596  1.00  0.00    -0.265 NA
ENDBRANCH   1  20
TORSDOF 7
ENDMDL
MODEL 7
REMARK VINA RESULT:    -8.902      1.670      2.249
REMARK INTER + INTRA:         -13.992
REMARK INTER:                 -12.623
REMARK INTRA:                  -1.369
REMARK UNBOUND:                -1.446
REMARK SMILES O=C(CC(CC(=O)c1ccccc1)c1ccncc1)c1ccccc1
REMARK SMILES IDX 4 1 3 2 2 3 1 4 20 5 21 6 25 7 22 8 24 9 23 10 5 11 6 12
REMARK SMILES IDX 7 13 8 14 9 15 13 16 10 17 12 18 11 19 14 20 15 21 19 22
REMARK SMILES IDX 16 23 18 24 17 25
REMARK H PARENT
ROOT
ATOM      1  C   UNL     1     -28.310   9.252   7.231  1.00  0.00    +0.035 C 
ENDROOT
BRANCH   1   2
ATOM      2  C   UNL     1     -29.785   9.069   7.650  1.00  0.00    +0.090 C 
BRANCH   2   3
ATOM      3  C   UNL     1     -30.629   8.142   6.790  1.00  0.00    +0.163 C 
ATOM      4  O   UNL     1     -30.625   8.192   5.561  1.00  0.00    -0.294 OA
BRANCH   3   5
ATOM      5  C   UNL     1     -31.463   7.100   7.460  1.00  0.00    +0.018 A 
ATOM      6  C   UNL     1     -32.702   6.774   6.893  1.00  0.00    +0.012 A 
ATOM      7  C   UNL     1     -31.038   6.434   8.615  1.00  0.00    +0.012 A 
ATOM      8  C   UNL     1     -33.515   5.804   7.485  1.00  0.00    +0.001 A 
ATOM      9  C   UNL     1     -31.855   5.465   9.204  1.00  0.00    +0.001 A 
ATOM     10  C   UNL     1     -33.091   5.153   8.641  1.00  0.00    +0.000 A 
ENDBRANCH   3   5
ENDBRANCH   2   3
ENDBRANCH   1   2
BRANCH   1  11
ATOM     11  C   UNL     1     -27.680   8.001   6.587  1.00  0.00    +0.090 C 
BRANCH  11  12
ATOM     12  C   UNL     1     -26.408   7.560   7.298  1.00  0.00    +0.163 C 
ATOM     13  O   UNL     1     -25.392   8.252   7.318  1.00  0.00    -0.294 OA
BRANCH  12  14
ATOM     14  C   UNL     1     -26.413   6.258   8.031  1.00  0.00    +0.018 A 
ATOM     15  C   UNL     1     -25.244   5.691   8.556  1.00  0.00    +0.012 A 
ATOM     16  C   UNL     1     -27.631   5.580   8.179  1.00  0.00    +0.012 A 
ATOM     17  C   UNL     1     -25.301   4.469   9.231  1.00  0.00    +0.001 A 
ATOM     18  C   UNL     1     -27.684   4.360   8.854  1.00  0.00    +0.001 A 
ATOM     19  C   UNL     1     -26.518   3.806   9.381  1.00  0.00    +0.000 A 
ENDBRANCH  12  14
ENDBRANCH  11  12
ENDBRANCH   1  11
BRANCH   1  20
ATOM     20  C   UNL     1     -28.096  10.513   6.403  1.00  0.00    -0.041 A 
ATOM     21  C   UNL     1     -29.125  11.457   6.302  1.00  0.00    +0.024 A 
ATOM     22  C   UNL     1     -26.899  10.784   5.735  1.00  0.00    +0.024 A 
ATOM     23  C   UNL     1     -28.921  12.598   5.542  1.00  0.00    +0.111 A 
ATOM     24  C   UNL     1     -26.791  11.954   4.995  1.00  0.00    +0.111 A 
ATOM     25  N   UNL     1     -27.777  12.865   4.878  1.00  0.00    -0.265 NA
ENDBRANCH   1  20
TORSDOF 7
ENDMDL
MODEL 8
REMARK VINA RESULT:    -8.834      5.274      8.648
REMARK INTER + INTRA:         -13.895
REMARK INTER:                 -12.469
REMARK INTRA:                  -1.426
REMARK UNBOUND:                -1.446
REMARK SMILES O=C(CC(CC(=O)c1ccccc1)c1ccncc1)c1ccccc1
REMARK SMILES IDX 4 1 3 2 2 3 1 4 20 5 21 6 25 7 22 8 24 9 23 10 5 11 6 12
REMARK SMILES IDX 7 13 8 14 9 15 13 16 10 17 12 18 11 19 14 20 15 21 19 22
REMARK SMILES IDX 16 23 18 24 17 25
REMARK H PARENT
ROOT
ATOM      1  C   UNL     1     -33.242   3.105   9.262  1.00  0.00    +0.035 C 
ENDROOT
BRANCH   1   2
ATOM      2  C   UNL     1     -34.612   2.423   9.052  1.00  0.00    +0.090 C 
BRANCH   2   3
ATOM      3  C   UNL     1     -35.703   3.266   8.410  1.00  0.00    +0.163 C 
ATOM      4  O   UNL     1     -35.859   3.331   7.192  1.00  0.00    -0.294 OA
BRANCH   3   5
ATOM      5  C   UNL     1     -36.650   4.009   9.293  1.00  0.00    +0.018 A 
ATOM      6  C   UNL     1     -37.274   3.311  10.336  1.00  0.00    +0.012 A 
ATOM      7  C   UNL     1     -36.917   5.373   9.122  1.00  0.00    +0.012 A 
ATOM      8  C   UNL     1     -38.166   3.966  11.188  1.00  0.00    +0.001 A 
ATOM      9  C   UNL     1     -37.811   6.023   9.977  1.00  0.00    +0.001 A 
ATOM     10  C   UNL     1     -38.435   5.320  11.005  1.00  0.00    +0.000 A 
ENDBRANCH   3   5
ENDBRANCH   2   3
ENDBRANCH   1   2
BRANCH   1  11
ATOM     11  C   UNL     1     -33.331   4.613   9.571  1.00  0.00    +0.090 C 
BRANCH  11  12
ATOM     12  C   UNL     1     -32.220   5.409   8.902  1.00  0.00    +0.163 C 
ATOM     13  O   UNL     1     -31.099   5.519   9.398  1.00  0.00    -0.294 OA
BRANCH  12  14
ATOM     14  C   UNL     1     -32.491   6.043   7.576  1.00  0.00    +0.018 A 
ATOM     15  C   UNL     1     -33.493   5.575   6.716  1.00  0.00    +0.012 A 
ATOM     16  C   UNL     1     -31.700   7.131   7.184  1.00  0.00    +0.012 A 
ATOM     17  C   UNL     1     -33.705   6.202   5.484  1.00  0.00    +0.001 A 
ATOM     18  C   UNL     1     -31.916   7.754   5.953  1.00  0.00    +0.001 A 
ATOM     19  C   UNL     1     -32.920   7.289   5.105  1.00  0.00    +0.000 A 
ENDBRANCH  12  14
ENDBRANCH  11  12
ENDBRANCH   1  11
BRANCH   1  20
ATOM     20  C   UNL     1     -32.367   2.349  10.255  1.00  0.00    -0.041 A 
ATOM     21  C   UNL     1     -31.018   2.123   9.957  1.00  0.00    +0.024 A 
ATOM     22  C   UNL     1     -32.853   1.868  11.474  1.00  0.00    +0.024 A 
ATOM     23  C   UNL     1     -30.234   1.430  10.866  1.00  0.00    +0.111 A 
ATOM     24  C   UNL     1     -31.990   1.182  12.318  1.00  0.00    +0.111 A 
ATOM     25  N   UNL     1     -30.692   0.947  12.039  1.00  0.00    -0.265 NA
ENDBRANCH   1  20
TORSDOF 7
ENDMDL
MODEL 9
REMARK VINA RESULT:    -8.640      7.762     10.202
REMARK INTER + INTRA:         -13.623
REMARK INTER:                 -11.600
REMARK INTRA:                  -2.022
REMARK UNBOUND:                -1.446
REMARK SMILES O=C(CC(CC(=O)c1ccccc1)c1ccncc1)c1ccccc1
REMARK SMILES IDX 4 1 3 2 2 3 1 4 20 5 21 6 25 7 22 8 24 9 23 10 5 11 6 12
REMARK SMILES IDX 7 13 8 14 9 15 13 16 10 17 12 18 11 19 14 20 15 21 19 22
REMARK SMILES IDX 16 23 18 24 17 25
REMARK H PARENT
ROOT
ATOM      1  C   UNL     1     -29.133   1.113  11.865  1.00  0.00    +0.035 C 
ENDROOT
BRANCH   1   2
ATOM      2  C   UNL     1     -29.309   0.074  10.736  1.00  0.00    +0.090 C 
BRANCH   2   3
ATOM      3  C   UNL     1     -30.625   0.109   9.974  1.00  0.00    +0.163 C 
ATOM      4  O   UNL     1     -30.927  -0.737   9.135  1.00  0.00    -0.294 OA
BRANCH   3   5
ATOM      5  C   UNL     1     -31.608   1.188  10.288  1.00  0.00    +0.018 A 
ATOM      6  C   UNL     1     -32.577   0.939  11.269  1.00  0.00    +0.012 A 
ATOM      7  C   UNL     1     -31.579   2.434   9.651  1.00  0.00    +0.012 A 
ATOM      8  C   UNL     1     -33.517   1.919  11.597  1.00  0.00    +0.001 A 
ATOM      9  C   UNL     1     -32.521   3.411   9.981  1.00  0.00    +0.001 A 
ATOM     10  C   UNL     1     -33.489   3.153  10.950  1.00  0.00    +0.000 A 
ENDBRANCH   3   5
ENDBRANCH   2   3
ENDBRANCH   1   2
BRANCH   1  11
ATOM     11  C   UNL     1     -28.927   0.496  13.262  1.00  0.00    +0.090 C 
BRANCH  11  12
ATOM     12  C   UNL     1     -30.243   0.129  13.933  1.00  0.00    +0.163 C 
ATOM     13  O   UNL     1     -31.011   0.979  14.382  1.00  0.00    -0.294 OA
BRANCH  12  14
ATOM     14  C   UNL     1     -30.630  -1.312  14.011  1.00  0.00    +0.018 A 
ATOM     15  C   UNL     1     -31.337  -1.952  12.985  1.00  0.00    +0.012 A 
ATOM     16  C   UNL     1     -30.283  -2.034  15.161  1.00  0.00    +0.012 A 
ATOM     17  C   UNL     1     -31.679  -3.302  13.107  1.00  0.00    +0.001 A 
ATOM     18  C   UNL     1     -30.626  -3.382  15.279  1.00  0.00    +0.001 A 
ATOM     19  C   UNL     1     -31.322  -4.015  14.251  1.00  0.00    +0.000 A 
ENDBRANCH  12  14
ENDBRANCH  11  12
ENDBRANCH   1  11
BRANCH   1  20
ATOM     20  C   UNL     1     -28.082   2.163  11.523  1.00  0.00    -0.041 A 
ATOM     21  C   UNL     1     -27.230   2.642  12.525  1.00  0.00    +0.024 A 
ATOM     22  C   UNL     1     -27.918   2.674  10.231  1.00  0.00    +0.024 A 
ATOM     23  C   UNL     1     -26.282   3.601  12.202  1.00  0.00    +0.111 A 
ATOM     24  C   UNL     1     -26.941   3.635  10.008  1.00  0.00    +0.111 A 
ATOM     25  N   UNL     1     -26.122   4.115  10.965  1.00  0.00    -0.265 NA
ENDBRANCH   1  20
TORSDOF 7
ENDMDL
