REMARK SMILES c1ccc2c3c(cc(CCc4cc5c(c6ccccc46)CCCC5)c2c1)CCCC3
REMARK SMILES IDX 9 1 8 2 28 3 29 4 27 5 30 6 6 7 5 8 7 9 4 10 3 11 25 12 2 13
REMARK SMILES IDX 26 14 1 15 10 16 11 17 20 18 12 19 19 20 15 21 13 22 18 23
REMARK SMILES IDX 16 24 14 25 24 26 17 27 21 28 23 29 22 30
REMARK H PARENT
ROOT
ATOM      1  C   UNL     1       0.420  -0.024   0.530  1.00  0.00    +0.041 C 
ENDROOT
BRANCH   1   2
ATOM      2  C   UNL     1       1.898  -0.173   0.213  1.00  0.00    -0.040 A 
ATOM      3  C   UNL     1       6.171   2.074   0.526  1.00  0.00    +0.005 C 
ATOM      4  C   UNL     1       6.877   0.744   0.249  1.00  0.00    +0.005 C 
ATOM      5  C   UNL     1       4.832   2.230  -0.188  1.00  0.00    +0.036 C 
ATOM      6  C   UNL     1       6.131  -0.191  -0.709  1.00  0.00    +0.036 C 
ATOM      7  C   UNL     1       4.023   0.961  -0.107  1.00  0.00    -0.044 A 
ATOM      8  C   UNL     1       4.653  -0.270  -0.380  1.00  0.00    -0.037 A 
ATOM      9  C   UNL     1       2.662   1.002   0.179  1.00  0.00    +0.008 A 
ATOM     10  C   UNL     1       3.896  -1.474  -0.394  1.00  0.00    -0.015 A 
ATOM     11  C   UNL     1       4.460  -2.734  -0.711  1.00  0.00    +0.009 A 
ATOM     12  C   UNL     1       2.506  -1.425  -0.082  1.00  0.00    -0.015 A 
ATOM     13  C   UNL     1       3.709  -3.910  -0.712  1.00  0.00    +0.001 A 
ATOM     14  C   UNL     1       1.774  -2.637  -0.088  1.00  0.00    +0.009 A 
ATOM     15  C   UNL     1       2.364  -3.862  -0.396  1.00  0.00    +0.001 A 
ENDBRANCH   1   2
BRANCH   1  16
ATOM     16  C   UNL     1      -0.427   0.064  -0.745  1.00  0.00    +0.041 C 
BRANCH  16  17
ATOM     17  C   UNL     1      -1.904   0.212  -0.428  1.00  0.00    -0.040 A 
ATOM     18  C   UNL     1      -2.515   1.459  -0.138  1.00  0.00    -0.015 A 
ATOM     19  C   UNL     1      -2.670  -0.963  -0.394  1.00  0.00    +0.008 A 
ATOM     20  C   UNL     1      -1.789   2.675  -0.129  1.00  0.00    +0.009 A 
ATOM     21  C   UNL     1      -3.906   1.500   0.162  1.00  0.00    -0.015 A 
ATOM     22  C   UNL     1      -4.034  -0.940  -0.093  1.00  0.00    -0.044 A 
ATOM     23  C   UNL     1      -2.389   3.898   0.168  1.00  0.00    +0.001 A 
ATOM     24  C   UNL     1      -4.481   2.759   0.466  1.00  0.00    +0.009 A 
ATOM     25  C   UNL     1      -4.669   0.292   0.154  1.00  0.00    -0.037 A 
ATOM     26  C   UNL     1      -4.783  -2.252  -0.098  1.00  0.00    +0.036 C 
ATOM     27  C   UNL     1      -3.738   3.939   0.469  1.00  0.00    +0.001 A 
ATOM     28  C   UNL     1      -6.157   0.317   0.466  1.00  0.00    +0.036 C 
ATOM     29  C   UNL     1      -6.124  -2.182   0.622  1.00  0.00    +0.005 C 
ATOM     30  C   UNL     1      -6.903  -0.974   0.132  1.00  0.00    +0.005 C 
ENDBRANCH  16  17
ENDBRANCH   1  16
TORSDOF 3
