MODEL 1
REMARK VINA RESULT:   -10.359      0.000      0.000
REMARK INTER + INTRA:         -13.096
REMARK INTER:                 -12.781
REMARK INTRA:                  -0.315
REMARK UNBOUND:                -0.315
REMARK SMILES CCc1nc(Nc2cccc(Cl)c2)c2cnn(-c3ccccc3)c2n1
REMARK SMILES IDX 3 1 4 2 5 3 14 4 15 5 16 6 17 7 24 8 25 9 2 10 1 11 6 12
REMARK SMILES IDX 7 14 13 15 8 16 11 17 9 18 10 19 12 20 18 21 19 22 23 23
REMARK SMILES IDX 20 24 22 25 21 26
REMARK H PARENT 6 13
ROOT
ATOM      1  C   UNL     1     -29.007   6.852   8.182  1.00  0.00    +0.133 A 
ATOM      2  N   UNL     1     -28.107   5.876   8.412  1.00  0.00    -0.215 NA
ATOM      3  C   UNL     1     -26.815   6.031   8.035  1.00  0.00    +0.145 A 
ATOM      4  C   UNL     1     -26.480   7.241   7.406  1.00  0.00    +0.082 A 
ATOM      5  C   UNL     1     -25.329   7.834   6.864  1.00  0.00    +0.150 A 
ATOM      6  N   UNL     1     -25.551   9.047   6.362  1.00  0.00    -0.174 NA
ATOM      7  N   UNL     1     -26.887   9.269   6.571  1.00  0.00    -0.215 N 
ATOM      8  C   UNL     1     -27.481   8.179   7.211  1.00  0.00    +0.168 A 
ATOM      9  N   UNL     1     -28.767   8.028   7.581  1.00  0.00    -0.213 NA
ENDROOT
BRANCH   1  10
ATOM     10  C   UNL     1     -30.424   6.583   8.612  1.00  0.00    +0.074 C 
ATOM     11  C   UNL     1     -31.416   7.302   7.713  1.00  0.00    +0.012 C 
ENDBRANCH   1  10
BRANCH   3  12
ATOM     12  N   UNL     1     -25.850   5.037   8.267  1.00  0.00    -0.339 N 
ATOM     13  H   UNL     1     -25.142   4.988   7.546  1.00  0.00    +0.168 HD
BRANCH  12  14
ATOM     14  C   UNL     1     -25.687   4.086   9.291  1.00  0.00    +0.041 A 
ATOM     15  C   UNL     1     -26.369   2.863   9.181  1.00  0.00    +0.046 A 
ATOM     16  C   UNL     1     -24.872   4.275  10.413  1.00  0.00    +0.026 A 
ATOM     17  C   UNL     1     -26.240   1.875  10.162  1.00  0.00    +0.043 A 
ATOM     18  C   UNL     1     -24.743   3.286  11.396  1.00  0.00    +0.004 A 
ATOM     19  C   UNL     1     -25.429   2.082  11.271  1.00  0.00    +0.020 A 
ATOM     20 Cl   UNL     1     -27.093   0.390   9.992  1.00  0.00    -0.084 Cl
ENDBRANCH  12  14
ENDBRANCH   3  12
BRANCH   7  21
ATOM     21  C   UNL     1     -27.471  10.501   6.140  1.00  0.00    +0.067 A 
ATOM     22  C   UNL     1     -26.777  11.413   5.334  1.00  0.00    +0.028 A 
ATOM     23  C   UNL     1     -28.784  10.811   6.537  1.00  0.00    +0.028 A 
ATOM     24  C   UNL     1     -27.385  12.608   4.935  1.00  0.00    +0.002 A 
ATOM     25  C   UNL     1     -29.386  12.006   6.134  1.00  0.00    +0.002 A 
ATOM     26  C   UNL     1     -28.686  12.904   5.334  1.00  0.00    +0.000 A 
ENDBRANCH   7  21
TORSDOF 4
ENDMDL
MODEL 2
REMARK VINA RESULT:   -10.292      2.891      5.572
REMARK INTER + INTRA:         -13.013
REMARK INTER:                 -12.504
REMARK INTRA:                  -0.509
REMARK UNBOUND:                -0.315
REMARK SMILES CCc1nc(Nc2cccc(Cl)c2)c2cnn(-c3ccccc3)c2n1
REMARK SMILES IDX 3 1 4 2 5 3 14 4 15 5 16 6 17 7 24 8 25 9 2 10 1 11 6 12
REMARK SMILES IDX 7 14 13 15 8 16 11 17 9 18 10 19 12 20 18 21 19 22 23 23
REMARK SMILES IDX 20 24 22 25 21 26
REMARK H PARENT 6 13
ROOT
ATOM      1  C   UNL     1     -28.454   6.913   8.100  1.00  0.00    +0.133 A 
ATOM      2  N   UNL     1     -29.597   6.348   8.537  1.00  0.00    -0.215 NA
ATOM      3  C   UNL     1     -30.783   6.982   8.371  1.00  0.00    +0.145 A 
ATOM      4  C   UNL     1     -30.748   8.232   7.732  1.00  0.00    +0.082 A 
ATOM      5  C   UNL     1     -31.672   9.219   7.352  1.00  0.00    +0.150 A 
ATOM      6  N   UNL     1     -31.106  10.264   6.751  1.00  0.00    -0.174 NA
ATOM      7  N   UNL     1     -29.767   9.969   6.733  1.00  0.00    -0.215 N 
ATOM      8  C   UNL     1     -29.520   8.729   7.325  1.00  0.00    +0.168 A 
ATOM      9  N   UNL     1     -28.338   8.104   7.491  1.00  0.00    -0.213 NA
ENDROOT
BRANCH   1  10
ATOM     10  C   UNL     1     -27.182   6.149   8.350  1.00  0.00    +0.074 C 
ATOM     11  C   UNL     1     -26.085   6.581   7.391  1.00  0.00    +0.012 C 
ENDBRANCH   1  10
BRANCH   3  12
ATOM     12  N   UNL     1     -31.993   6.419   8.807  1.00  0.00    -0.339 N 
ATOM     13  H   UNL     1     -32.236   6.670   9.755  1.00  0.00    +0.168 HD
BRANCH  12  14
ATOM     14  C   UNL     1     -32.921   5.559   8.190  1.00  0.00    +0.041 A 
ATOM     15  C   UNL     1     -33.299   4.389   8.868  1.00  0.00    +0.046 A 
ATOM     16  C   UNL     1     -33.507   5.804   6.943  1.00  0.00    +0.026 A 
ATOM     17  C   UNL     1     -34.224   3.500   8.312  1.00  0.00    +0.043 A 
ATOM     18  C   UNL     1     -34.433   4.913   6.385  1.00  0.00    +0.004 A 
ATOM     19  C   UNL     1     -34.793   3.757   7.071  1.00  0.00    +0.020 A 
ATOM     20 Cl   UNL     1     -34.662   2.076   9.174  1.00  0.00    -0.084 Cl
ENDBRANCH  12  14
ENDBRANCH   3  12
BRANCH   7  21
ATOM     21  C   UNL     1     -28.850  10.899   6.150  1.00  0.00    +0.067 A 
ATOM     22  C   UNL     1     -27.535  10.542   5.825  1.00  0.00    +0.028 A 
ATOM     23  C   UNL     1     -29.279  12.213   5.895  1.00  0.00    +0.028 A 
ATOM     24  C   UNL     1     -26.669  11.483   5.256  1.00  0.00    +0.002 A 
ATOM     25  C   UNL     1     -28.409  13.148   5.326  1.00  0.00    +0.002 A 
ATOM     26  C   UNL     1     -27.105  12.782   5.007  1.00  0.00    +0.000 A 
ENDBRANCH   7  21
TORSDOF 4
ENDMDL
MODEL 3
REMARK VINA RESULT:    -9.790      6.224     10.320
REMARK INTER + INTRA:         -12.394
REMARK INTER:                 -11.608
REMARK INTRA:                  -0.786
REMARK UNBOUND:                -0.315
REMARK SMILES CCc1nc(Nc2cccc(Cl)c2)c2cnn(-c3ccccc3)c2n1
REMARK SMILES IDX 3 1 4 2 5 3 14 4 15 5 16 6 17 7 24 8 25 9 2 10 1 11 6 12
REMARK SMILES IDX 7 14 13 15 8 16 11 17 9 18 10 19 12 20 18 21 19 22 23 23
REMARK SMILES IDX 20 24 22 25 21 26
REMARK H PARENT 6 13
ROOT
ATOM      1  C   UNL     1     -35.858   3.240  10.197  1.00  0.00    +0.133 A 
ATOM      2  N   UNL     1     -35.816   4.438   9.581  1.00  0.00    -0.215 NA
ATOM      3  C   UNL     1     -34.639   4.943   9.142  1.00  0.00    +0.145 A 
ATOM      4  C   UNL     1     -33.493   4.161   9.363  1.00  0.00    +0.082 A 
ATOM      5  C   UNL     1     -32.117   4.255   9.101  1.00  0.00    +0.150 A 
ATOM      6  N   UNL     1     -31.427   3.202   9.534  1.00  0.00    -0.174 NA
ATOM      7  N   UNL     1     -32.367   2.383  10.104  1.00  0.00    -0.215 N 
ATOM      8  C   UNL     1     -33.642   2.945  10.011  1.00  0.00    +0.168 A 
ATOM      9  N   UNL     1     -34.810   2.441  10.453  1.00  0.00    -0.213 NA
ENDROOT
BRANCH   1  10
ATOM     10  C   UNL     1     -37.206   2.770  10.674  1.00  0.00    +0.074 C 
ATOM     11  C   UNL     1     -38.086   3.943  11.075  1.00  0.00    +0.012 C 
ENDBRANCH   1  10
BRANCH   3  12
ATOM     12  N   UNL     1     -34.560   6.183   8.488  1.00  0.00    -0.339 N 
ATOM     13  H   UNL     1     -35.099   6.911   8.939  1.00  0.00    +0.168 HD
BRANCH  12  14
ATOM     14  C   UNL     1     -33.897   6.606   7.322  1.00  0.00    +0.041 A 
ATOM     15  C   UNL     1     -32.957   7.644   7.428  1.00  0.00    +0.046 A 
ATOM     16  C   UNL     1     -34.104   6.046   6.056  1.00  0.00    +0.026 A 
ATOM     17  C   UNL     1     -32.258   8.102   6.306  1.00  0.00    +0.043 A 
ATOM     18  C   UNL     1     -33.405   6.505   4.932  1.00  0.00    +0.004 A 
ATOM     19  C   UNL     1     -32.480   7.536   5.056  1.00  0.00    +0.020 A 
ATOM     20 Cl   UNL     1     -31.114   9.377   6.477  1.00  0.00    -0.084 Cl
ENDBRANCH  12  14
ENDBRANCH   3  12
BRANCH   7  21
ATOM     21  C   UNL     1     -31.959   1.142  10.683  1.00  0.00    +0.067 A 
ATOM     22  C   UNL     1     -31.707   0.004   9.905  1.00  0.00    +0.028 A 
ATOM     23  C   UNL     1     -31.806   1.055  12.078  1.00  0.00    +0.028 A 
ATOM     24  C   UNL     1     -31.310  -1.192  10.512  1.00  0.00    +0.002 A 
ATOM     25  C   UNL     1     -31.409  -0.143  12.678  1.00  0.00    +0.002 A 
ATOM     26  C   UNL     1     -31.161  -1.266  11.894  1.00  0.00    +0.000 A 
ENDBRANCH   7  21
TORSDOF 4
ENDMDL
MODEL 4
REMARK VINA RESULT:    -9.674      5.427      9.626
REMARK INTER + INTRA:         -12.251
REMARK INTER:                 -11.574
REMARK INTRA:                  -0.677
REMARK UNBOUND:                -0.315
REMARK SMILES CCc1nc(Nc2cccc(Cl)c2)c2cnn(-c3ccccc3)c2n1
REMARK SMILES IDX 3 1 4 2 5 3 14 4 15 5 16 6 17 7 24 8 25 9 2 10 1 11 6 12
REMARK SMILES IDX 7 14 13 15 8 16 11 17 9 18 10 19 12 20 18 21 19 22 23 23
REMARK SMILES IDX 20 24 22 25 21 26
REMARK H PARENT 6 13
ROOT
ATOM      1  C   UNL     1     -31.964   4.336   9.176  1.00  0.00    +0.133 A 
ATOM      2  N   UNL     1     -31.456   5.290   8.371  1.00  0.00    -0.215 NA
ATOM      3  C   UNL     1     -32.273   6.198   7.784  1.00  0.00    +0.145 A 
ATOM      4  C   UNL     1     -33.645   6.085   8.059  1.00  0.00    +0.082 A 
ATOM      5  C   UNL     1     -34.824   6.760   7.703  1.00  0.00    +0.150 A 
ATOM      6  N   UNL     1     -35.916   6.234   8.254  1.00  0.00    -0.174 NA
ATOM      7  N   UNL     1     -35.455   5.177   8.995  1.00  0.00    -0.215 N 
ATOM      8  C   UNL     1     -34.067   5.064   8.896  1.00  0.00    +0.168 A 
ATOM      9  N   UNL     1     -33.259   4.158   9.479  1.00  0.00    -0.213 NA
ENDROOT
BRANCH   1  10
ATOM     10  C   UNL     1     -30.985   3.355   9.764  1.00  0.00    +0.074 C 
ATOM     11  C   UNL     1     -31.606   1.974   9.898  1.00  0.00    +0.012 C 
ENDBRANCH   1  10
BRANCH   3  12
ATOM     12  N   UNL     1     -31.777   7.211   6.947  1.00  0.00    -0.339 N 
ATOM     13  H   UNL     1     -31.658   6.917   5.987  1.00  0.00    +0.168 HD
BRANCH  12  14
ATOM     14  C   UNL     1     -31.394   8.543   7.186  1.00  0.00    +0.041 A 
ATOM     15  C   UNL     1     -30.112   8.952   6.786  1.00  0.00    +0.046 A 
ATOM     16  C   UNL     1     -32.221   9.500   7.789  1.00  0.00    +0.026 A 
ATOM     17  C   UNL     1     -29.678  10.266   6.988  1.00  0.00    +0.043 A 
ATOM     18  C   UNL     1     -31.786  10.816   7.992  1.00  0.00    +0.004 A 
ATOM     19  C   UNL     1     -30.510  11.201   7.591  1.00  0.00    +0.020 A 
ATOM     20 Cl   UNL     1     -28.098  10.728   6.483  1.00  0.00    -0.084 Cl
ENDBRANCH  12  14
ENDBRANCH   3  12
BRANCH   7  21
ATOM     21  C   UNL     1     -36.384   4.375   9.729  1.00  0.00    +0.067 A 
ATOM     22  C   UNL     1     -36.305   2.976   9.750  1.00  0.00    +0.028 A 
ATOM     23  C   UNL     1     -37.410   5.006  10.453  1.00  0.00    +0.028 A 
ATOM     24  C   UNL     1     -37.234   2.228  10.481  1.00  0.00    +0.002 A 
ATOM     25  C   UNL     1     -38.334   4.253  11.183  1.00  0.00    +0.002 A 
ATOM     26  C   UNL     1     -38.246   2.865  11.195  1.00  0.00    +0.000 A 
ENDBRANCH   7  21
TORSDOF 4
ENDMDL
MODEL 5
REMARK VINA RESULT:    -9.590      5.850      8.826
REMARK INTER + INTRA:         -12.147
REMARK INTER:                 -11.375
REMARK INTRA:                  -0.772
REMARK UNBOUND:                -0.315
REMARK SMILES CCc1nc(Nc2cccc(Cl)c2)c2cnn(-c3ccccc3)c2n1
REMARK SMILES IDX 3 1 4 2 5 3 14 4 15 5 16 6 17 7 24 8 25 9 2 10 1 11 6 12
REMARK SMILES IDX 7 14 13 15 8 16 11 17 9 18 10 19 12 20 18 21 19 22 23 23
REMARK SMILES IDX 20 24 22 25 21 26
REMARK H PARENT 6 13
ROOT
ATOM      1  C   UNL     1     -32.064   4.747   9.180  1.00  0.00    +0.133 A 
ATOM      2  N   UNL     1     -31.261   3.674   9.323  1.00  0.00    -0.215 NA
ATOM      3  C   UNL     1     -31.769   2.485   9.725  1.00  0.00    +0.145 A 
ATOM      4  C   UNL     1     -33.150   2.440   9.979  1.00  0.00    +0.082 A 
ATOM      5  C   UNL     1     -34.088   1.483  10.395  1.00  0.00    +0.150 A 
ATOM      6  N   UNL     1     -35.325   1.966  10.487  1.00  0.00    -0.174 NA
ATOM      7  N   UNL     1     -35.210   3.284  10.128  1.00  0.00    -0.215 N 
ATOM      8  C   UNL     1     -33.887   3.601   9.809  1.00  0.00    +0.168 A 
ATOM      9  N   UNL     1     -33.386   4.786   9.412  1.00  0.00    -0.213 NA
ENDROOT
BRANCH   1  10
ATOM     10  C   UNL     1     -31.408   6.033   8.754  1.00  0.00    +0.074 C 
ATOM     11  C   UNL     1     -32.180   6.694   7.624  1.00  0.00    +0.012 C 
ENDBRANCH   1  10
BRANCH   3  12
ATOM     12  N   UNL     1     -30.962   1.346   9.875  1.00  0.00    -0.339 N 
ATOM     13  H   UNL     1     -30.376   1.158   9.073  1.00  0.00    +0.168 HD
BRANCH  12  14
ATOM     14  C   UNL     1     -30.825   0.404  10.912  1.00  0.00    +0.041 A 
ATOM     15  C   UNL     1     -30.631   0.876  12.221  1.00  0.00    +0.046 A 
ATOM     16  C   UNL     1     -30.884  -0.982  10.725  1.00  0.00    +0.026 A 
ATOM     17  C   UNL     1     -30.498  -0.009  13.294  1.00  0.00    +0.043 A 
ATOM     18  C   UNL     1     -30.748  -1.869  11.800  1.00  0.00    +0.004 A 
ATOM     19  C   UNL     1     -30.555  -1.382  13.089  1.00  0.00    +0.020 A 
ATOM     20 Cl   UNL     1     -30.261   0.609  14.883  1.00  0.00    -0.084 Cl
ENDBRANCH  12  14
ENDBRANCH   3  12
BRANCH   7  21
ATOM     21  C   UNL     1     -36.372   4.116  10.121  1.00  0.00    +0.067 A 
ATOM     22  C   UNL     1     -37.394   3.960   9.176  1.00  0.00    +0.028 A 
ATOM     23  C   UNL     1     -36.497   5.124  11.094  1.00  0.00    +0.028 A 
ATOM     24  C   UNL     1     -38.515   4.796   9.204  1.00  0.00    +0.002 A 
ATOM     25  C   UNL     1     -37.620   5.956  11.117  1.00  0.00    +0.002 A 
ATOM     26  C   UNL     1     -38.628   5.791  10.172  1.00  0.00    +0.000 A 
ENDBRANCH   7  21
TORSDOF 4
ENDMDL
MODEL 6
REMARK VINA RESULT:    -9.538      5.079      9.334
REMARK INTER + INTRA:         -12.083
REMARK INTER:                 -11.588
REMARK INTRA:                  -0.494
REMARK UNBOUND:                -0.315
REMARK SMILES CCc1nc(Nc2cccc(Cl)c2)c2cnn(-c3ccccc3)c2n1
REMARK SMILES IDX 3 1 4 2 5 3 14 4 15 5 16 6 17 7 24 8 25 9 2 10 1 11 6 12
REMARK SMILES IDX 7 14 13 15 8 16 11 17 9 18 10 19 12 20 18 21 19 22 23 23
REMARK SMILES IDX 20 24 22 25 21 26
REMARK H PARENT 6 13
ROOT
ATOM      1  C   UNL     1     -35.567   5.642   8.618  1.00  0.00    +0.133 A 
ATOM      2  N   UNL     1     -35.100   6.663   7.873  1.00  0.00    -0.215 NA
ATOM      3  C   UNL     1     -33.768   6.812   7.671  1.00  0.00    +0.145 A 
ATOM      4  C   UNL     1     -32.927   5.862   8.272  1.00  0.00    +0.082 A 
ATOM      5  C   UNL     1     -31.548   5.609   8.345  1.00  0.00    +0.150 A 
ATOM      6  N   UNL     1     -31.249   4.536   9.075  1.00  0.00    -0.174 NA
ATOM      7  N   UNL     1     -32.460   4.061   9.504  1.00  0.00    -0.215 N 
ATOM      8  C   UNL     1     -33.506   4.853   9.025  1.00  0.00    +0.168 A 
ATOM      9  N   UNL     1     -34.829   4.702   9.231  1.00  0.00    -0.213 NA
ENDROOT
BRANCH   1  10
ATOM     10  C   UNL     1     -37.058   5.569   8.810  1.00  0.00    +0.074 C 
ATOM     11  C   UNL     1     -37.485   6.302  10.071  1.00  0.00    +0.012 C 
ENDBRANCH   1  10
BRANCH   3  12
ATOM     12  N   UNL     1     -33.248   7.859   6.893  1.00  0.00    -0.339 N 
ATOM     13  H   UNL     1     -33.655   7.915   5.969  1.00  0.00    +0.168 HD
BRANCH  12  14
ATOM     14  C   UNL     1     -32.261   8.830   7.140  1.00  0.00    +0.041 A 
ATOM     15  C   UNL     1     -30.957   8.589   6.676  1.00  0.00    +0.046 A 
ATOM     16  C   UNL     1     -32.498  10.037   7.808  1.00  0.00    +0.026 A 
ATOM     17  C   UNL     1     -29.935   9.520   6.882  1.00  0.00    +0.043 A 
ATOM     18  C   UNL     1     -31.473  10.970   8.015  1.00  0.00    +0.004 A 
ATOM     19  C   UNL     1     -30.187  10.711   7.551  1.00  0.00    +0.020 A 
ATOM     20 Cl   UNL     1     -28.349   9.187   6.299  1.00  0.00    -0.084 Cl
ENDBRANCH  12  14
ENDBRANCH   3  12
BRANCH   7  21
ATOM     21  C   UNL     1     -32.506   2.895  10.330  1.00  0.00    +0.067 A 
ATOM     22  C   UNL     1     -33.354   2.803  11.442  1.00  0.00    +0.028 A 
ATOM     23  C   UNL     1     -31.674   1.805  10.021  1.00  0.00    +0.028 A 
ATOM     24  C   UNL     1     -33.368   1.644  12.225  1.00  0.00    +0.002 A 
ATOM     25  C   UNL     1     -31.693   0.649  10.807  1.00  0.00    +0.002 A 
ATOM     26  C   UNL     1     -32.540   0.570  11.908  1.00  0.00    +0.000 A 
ENDBRANCH   7  21
TORSDOF 4
ENDMDL
MODEL 7
REMARK VINA RESULT:    -9.223      8.755     11.283
REMARK INTER + INTRA:         -11.694
REMARK INTER:                 -11.071
REMARK INTRA:                  -0.623
REMARK UNBOUND:                -0.315
REMARK SMILES CCc1nc(Nc2cccc(Cl)c2)c2cnn(-c3ccccc3)c2n1
REMARK SMILES IDX 3 1 4 2 5 3 14 4 15 5 16 6 17 7 24 8 25 9 2 10 1 11 6 12
REMARK SMILES IDX 7 14 13 15 8 16 11 17 9 18 10 19 12 20 18 21 19 22 23 23
REMARK SMILES IDX 20 24 22 25 21 26
REMARK H PARENT 6 13
ROOT
ATOM      1  C   UNL     1     -37.923   4.305   9.941  1.00  0.00    +0.133 A 
ATOM      2  N   UNL     1     -38.159   3.126  10.550  1.00  0.00    -0.215 NA
ATOM      3  C   UNL     1     -37.235   2.136  10.509  1.00  0.00    +0.145 A 
ATOM      4  C   UNL     1     -36.047   2.408   9.810  1.00  0.00    +0.082 A 
ATOM      5  C   UNL     1     -34.854   1.731   9.507  1.00  0.00    +0.150 A 
ATOM      6  N   UNL     1     -34.008   2.460   8.783  1.00  0.00    -0.174 NA
ATOM      7  N   UNL     1     -34.654   3.653   8.592  1.00  0.00    -0.215 N 
ATOM      8  C   UNL     1     -35.905   3.650   9.214  1.00  0.00    +0.168 A 
ATOM      9  N   UNL     1     -36.822   4.636   9.249  1.00  0.00    -0.213 NA
ENDROOT
BRANCH   1  10
ATOM     10  C   UNL     1     -39.017   5.337  10.017  1.00  0.00    +0.074 C 
ATOM     11  C   UNL     1     -38.634   6.598   9.260  1.00  0.00    +0.012 C 
ENDBRANCH   1  10
BRANCH   3  12
ATOM     12  N   UNL     1     -37.444   0.899  11.139  1.00  0.00    -0.339 N 
ATOM     13  H   UNL     1     -36.588   0.433  11.407  1.00  0.00    +0.168 HD
BRANCH  12  14
ATOM     14  C   UNL     1     -38.608   0.173  11.452  1.00  0.00    +0.041 A 
ATOM     15  C   UNL     1     -38.750  -1.121  10.923  1.00  0.00    +0.046 A 
ATOM     16  C   UNL     1     -39.634   0.653  12.274  1.00  0.00    +0.026 A 
ATOM     17  C   UNL     1     -39.880  -1.895  11.205  1.00  0.00    +0.043 A 
ATOM     18  C   UNL     1     -40.766  -0.123  12.556  1.00  0.00    +0.004 A 
ATOM     19  C   UNL     1     -40.890  -1.400  12.020  1.00  0.00    +0.020 A 
ATOM     20 Cl   UNL     1     -40.017  -3.476  10.537  1.00  0.00    -0.084 Cl
ENDBRANCH  12  14
ENDBRANCH   3  12
BRANCH   7  21
ATOM     21  C   UNL     1     -34.016   4.686   7.837  1.00  0.00    +0.067 A 
ATOM     22  C   UNL     1     -34.369   4.963   6.509  1.00  0.00    +0.028 A 
ATOM     23  C   UNL     1     -33.001   5.449   8.441  1.00  0.00    +0.028 A 
ATOM     24  C   UNL     1     -33.719   5.982   5.805  1.00  0.00    +0.002 A 
ATOM     25  C   UNL     1     -32.356   6.466   7.732  1.00  0.00    +0.002 A 
ATOM     26  C   UNL     1     -32.716   6.732   6.414  1.00  0.00    +0.000 A 
ENDBRANCH   7  21
TORSDOF 4
ENDMDL
MODEL 8
REMARK VINA RESULT:    -9.201      5.524      7.494
REMARK INTER + INTRA:         -11.668
REMARK INTER:                 -11.031
REMARK INTRA:                  -0.636
REMARK UNBOUND:                -0.315
REMARK SMILES CCc1nc(Nc2cccc(Cl)c2)c2cnn(-c3ccccc3)c2n1
REMARK SMILES IDX 3 1 4 2 5 3 14 4 15 5 16 6 17 7 24 8 25 9 2 10 1 11 6 12
REMARK SMILES IDX 7 14 13 15 8 16 11 17 9 18 10 19 12 20 18 21 19 22 23 23
REMARK SMILES IDX 20 24 22 25 21 26
REMARK H PARENT 6 13
ROOT
ATOM      1  C   UNL     1     -36.195   4.634   9.358  1.00  0.00    +0.133 A 
ATOM      2  N   UNL     1     -35.976   3.651  10.253  1.00  0.00    -0.215 NA
ATOM      3  C   UNL     1     -34.716   3.224  10.510  1.00  0.00    +0.145 A 
ATOM      4  C   UNL     1     -33.679   3.854   9.802  1.00  0.00    +0.082 A 
ATOM      5  C   UNL     1     -32.279   3.762   9.731  1.00  0.00    +0.150 A 
ATOM      6  N   UNL     1     -31.741   4.618   8.864  1.00  0.00    -0.174 NA
ATOM      7  N   UNL     1     -32.810   5.297   8.340  1.00  0.00    -0.215 N 
ATOM      8  C   UNL     1     -34.009   4.851   8.899  1.00  0.00    +0.168 A 
ATOM      9  N   UNL     1     -35.261   5.276   8.638  1.00  0.00    -0.213 NA
ENDROOT
BRANCH   1  10
ATOM     10  C   UNL     1     -37.628   5.026   9.119  1.00  0.00    +0.074 C 
ATOM     11  C   UNL     1     -38.009   6.244   9.944  1.00  0.00    +0.012 C 
ENDBRANCH   1  10
BRANCH   3  12
ATOM     12  N   UNL     1     -34.451   2.208  11.442  1.00  0.00    -0.339 N 
ATOM     13  H   UNL     1     -35.126   2.165  12.194  1.00  0.00    +0.168 HD
BRANCH  12  14
ATOM     14  C   UNL     1     -33.423   1.254  11.547  1.00  0.00    +0.041 A 
ATOM     15  C   UNL     1     -32.536   1.344  12.632  1.00  0.00    +0.046 A 
ATOM     16  C   UNL     1     -33.233   0.204  10.640  1.00  0.00    +0.026 A 
ATOM     17  C   UNL     1     -31.500   0.420  12.796  1.00  0.00    +0.043 A 
ATOM     18  C   UNL     1     -32.194  -0.721  10.803  1.00  0.00    +0.004 A 
ATOM     19  C   UNL     1     -31.324  -0.614  11.884  1.00  0.00    +0.020 A 
ATOM     20 Cl   UNL     1     -30.433   0.565  14.139  1.00  0.00    -0.084 Cl
ENDBRANCH  12  14
ENDBRANCH   3  12
BRANCH   7  21
ATOM     21  C   UNL     1     -32.586   6.309   7.355  1.00  0.00    +0.067 A 
ATOM     22  C   UNL     1     -33.102   6.212   6.056  1.00  0.00    +0.028 A 
ATOM     23  C   UNL     1     -31.823   7.439   7.698  1.00  0.00    +0.028 A 
ATOM     24  C   UNL     1     -32.859   7.225   5.122  1.00  0.00    +0.002 A 
ATOM     25  C   UNL     1     -31.584   8.448   6.760  1.00  0.00    +0.002 A 
ATOM     26  C   UNL     1     -32.102   8.340   5.473  1.00  0.00    +0.000 A 
ENDBRANCH   7  21
TORSDOF 4
ENDMDL
MODEL 9
REMARK VINA RESULT:    -8.822      5.338      8.494
REMARK INTER + INTRA:         -11.199
REMARK INTER:                 -10.692
REMARK INTRA:                  -0.508
REMARK UNBOUND:                -0.315
REMARK SMILES CCc1nc(Nc2cccc(Cl)c2)c2cnn(-c3ccccc3)c2n1
REMARK SMILES IDX 3 1 4 2 5 3 14 4 15 5 16 6 17 7 24 8 25 9 2 10 1 11 6 12
REMARK SMILES IDX 7 14 13 15 8 16 11 17 9 18 10 19 12 20 18 21 19 22 23 23
REMARK SMILES IDX 20 24 22 25 21 26
REMARK H PARENT 6 13
ROOT
ATOM      1  C   UNL     1     -31.983   4.626   9.186  1.00  0.00    +0.133 A 
ATOM      2  N   UNL     1     -31.084   3.624   9.261  1.00  0.00    -0.215 NA
ATOM      3  C   UNL     1     -31.436   2.424   9.782  1.00  0.00    +0.145 A 
ATOM      4  C   UNL     1     -32.761   2.292  10.229  1.00  0.00    +0.082 A 
ATOM      5  C   UNL     1     -33.554   1.292  10.813  1.00  0.00    +0.150 A 
ATOM      6  N   UNL     1     -34.802   1.688  11.057  1.00  0.00    -0.174 NA
ATOM      7  N   UNL     1     -34.842   2.989  10.627  1.00  0.00    -0.215 N 
ATOM      8  C   UNL     1     -33.606   3.384  10.112  1.00  0.00    +0.168 A 
ATOM      9  N   UNL     1     -33.260   4.580   9.598  1.00  0.00    -0.213 NA
ENDROOT
BRANCH   1  10
ATOM     10  C   UNL     1     -31.497   5.931   8.616  1.00  0.00    +0.074 C 
ATOM     11  C   UNL     1     -29.982   6.029   8.682  1.00  0.00    +0.012 C 
ENDBRANCH   1  10
BRANCH   3  12
ATOM     12  N   UNL     1     -30.527   1.357   9.868  1.00  0.00    -0.339 N 
ATOM     13  H   UNL     1     -30.743   0.593   9.241  1.00  0.00    +0.168 HD
BRANCH  12  14
ATOM     14  C   UNL     1     -29.390   1.135  10.666  1.00  0.00    +0.041 A 
ATOM     15  C   UNL     1     -28.616   2.243  11.049  1.00  0.00    +0.046 A 
ATOM     16  C   UNL     1     -28.985  -0.126  11.119  1.00  0.00    +0.026 A 
ATOM     17  C   UNL     1     -27.481   2.087  11.850  1.00  0.00    +0.043 A 
ATOM     18  C   UNL     1     -27.847  -0.283  11.920  1.00  0.00    +0.004 A 
ATOM     19  C   UNL     1     -27.091   0.827  12.287  1.00  0.00    +0.020 A 
ATOM     20 Cl   UNL     1     -26.558   3.470  12.297  1.00  0.00    -0.084 Cl
ENDBRANCH  12  14
ENDBRANCH   3  12
BRANCH   7  21
ATOM     21  C   UNL     1     -36.058   3.731  10.747  1.00  0.00    +0.067 A 
ATOM     22  C   UNL     1     -36.070   5.088  11.094  1.00  0.00    +0.028 A 
ATOM     23  C   UNL     1     -37.283   3.082  10.510  1.00  0.00    +0.028 A 
ATOM     24  C   UNL     1     -37.283   5.779  11.201  1.00  0.00    +0.002 A 
ATOM     25  C   UNL     1     -38.490   3.777  10.617  1.00  0.00    +0.002 A 
ATOM     26  C   UNL     1     -38.489   5.125  10.963  1.00  0.00    +0.000 A 
ENDBRANCH   7  21
TORSDOF 4
ENDMDL
