MODEL 1
REMARK VINA RESULT:   -10.116      0.000      0.000
REMARK INTER + INTRA:         -10.824
REMARK INTER:                 -10.708
REMARK INTRA:                  -0.116
REMARK UNBOUND:                -0.116
REMARK SMILES NC(=O)c1cc2ccccc2c2ccccc12
REMARK SMILES IDX 1 1 2 2 3 3 4 6 17 7 5 8 16 9 12 10 6 11 15 12 13 13 11 14
REMARK SMILES IDX 7 15 14 16 10 17 8 18 9 19
REMARK H PARENT 1 4 1 5
ROOT
ATOM      1  N   UNL     1     -31.825   9.487   6.248  1.00  0.00    -0.366 N 
ATOM      2  C   UNL     1     -30.986  10.061   7.164  1.00  0.00    +0.249 C 
ATOM      3  O   UNL     1     -31.417  10.725   8.096  1.00  0.00    -0.270 OA
ATOM      4  H   UNL     1     -31.508   8.778   5.602  1.00  0.00    +0.159 HD
ATOM      5  H   UNL     1     -32.818   9.549   6.439  1.00  0.00    +0.159 HD
ENDROOT
BRANCH   2   6
ATOM      6  C   UNL     1     -29.536   9.815   6.951  1.00  0.00    +0.048 A 
ATOM      7  C   UNL     1     -28.697  10.766   6.329  1.00  0.00    -0.005 A 
ATOM      8  C   UNL     1     -29.040   8.582   7.390  1.00  0.00    +0.023 A 
ATOM      9  C   UNL     1     -29.170  12.025   5.879  1.00  0.00    +0.009 A 
ATOM     10  C   UNL     1     -27.318  10.452   6.165  1.00  0.00    -0.010 A 
ATOM     11  C   UNL     1     -27.694   8.257   7.236  1.00  0.00    -0.017 A 
ATOM     12  C   UNL     1     -28.332  12.960   5.276  1.00  0.00    +0.001 A 
ATOM     13  C   UNL     1     -26.499  11.432   5.546  1.00  0.00    +0.009 A 
ATOM     14  C   UNL     1     -26.810   9.180   6.626  1.00  0.00    -0.010 A 
ATOM     15  C   UNL     1     -27.234   7.008   7.690  1.00  0.00    +0.009 A 
ATOM     16  C   UNL     1     -26.994  12.662   5.108  1.00  0.00    +0.001 A 
ATOM     17  C   UNL     1     -25.456   8.769   6.510  1.00  0.00    +0.009 A 
ATOM     18  C   UNL     1     -25.898   6.643   7.557  1.00  0.00    +0.001 A 
ATOM     19  C   UNL     1     -25.007   7.526   6.966  1.00  0.00    +0.001 A 
ENDBRANCH   2   6
TORSDOF 1
ENDMDL
MODEL 2
REMARK VINA RESULT:    -9.737      2.530      3.673
REMARK INTER + INTRA:         -10.423
REMARK INTER:                 -10.296
REMARK INTRA:                  -0.127
REMARK UNBOUND:                -0.116
REMARK SMILES NC(=O)c1cc2ccccc2c2ccccc12
REMARK SMILES IDX 1 1 2 2 3 3 4 6 17 7 5 8 16 9 12 10 6 11 15 12 13 13 11 14
REMARK SMILES IDX 7 15 14 16 10 17 8 18 9 19
REMARK H PARENT 1 4 1 5
ROOT
ATOM      1  N   UNL     1     -25.473  12.523   5.760  1.00  0.00    -0.366 N 
ATOM      2  C   UNL     1     -26.124  11.570   5.025  1.00  0.00    +0.249 C 
ATOM      3  O   UNL     1     -26.141  11.606   3.804  1.00  0.00    -0.270 OA
ATOM      4  H   UNL     1     -25.276  12.401   6.743  1.00  0.00    +0.159 HD
ATOM      5  H   UNL     1     -24.920  13.196   5.242  1.00  0.00    +0.159 HD
ENDROOT
BRANCH   2   6
ATOM      6  C   UNL     1     -26.792  10.499   5.810  1.00  0.00    +0.048 A 
ATOM      7  C   UNL     1     -28.134  10.607   6.238  1.00  0.00    -0.005 A 
ATOM      8  C   UNL     1     -26.018   9.373   6.116  1.00  0.00    +0.023 A 
ATOM      9  C   UNL     1     -28.944  11.732   5.939  1.00  0.00    +0.009 A 
ATOM     10  C   UNL     1     -28.697   9.534   6.985  1.00  0.00    -0.010 A 
ATOM     11  C   UNL     1     -26.553   8.315   6.847  1.00  0.00    -0.017 A 
ATOM     12  C   UNL     1     -30.269  11.825   6.357  1.00  0.00    +0.001 A 
ATOM     13  C   UNL     1     -30.051   9.669   7.392  1.00  0.00    +0.009 A 
ATOM     14  C   UNL     1     -27.897   8.372   7.292  1.00  0.00    -0.010 A 
ATOM     15  C   UNL     1     -25.744   7.201   7.135  1.00  0.00    +0.009 A 
ATOM     16  C   UNL     1     -30.823  10.791   7.087  1.00  0.00    +0.001 A 
ATOM     17  C   UNL     1     -28.361   7.250   8.029  1.00  0.00    +0.009 A 
ATOM     18  C   UNL     1     -26.238   6.122   7.861  1.00  0.00    +0.001 A 
ATOM     19  C   UNL     1     -27.550   6.147   8.308  1.00  0.00    +0.001 A 
ENDBRANCH   2   6
TORSDOF 1
ENDMDL
MODEL 3
REMARK VINA RESULT:    -9.566      2.447      4.182
REMARK INTER + INTRA:         -10.242
REMARK INTER:                 -10.143
REMARK INTRA:                  -0.099
REMARK UNBOUND:                -0.116
REMARK SMILES NC(=O)c1cc2ccccc2c2ccccc12
REMARK SMILES IDX 1 1 2 2 3 3 4 6 17 7 5 8 16 9 12 10 6 11 15 12 13 13 11 14
REMARK SMILES IDX 7 15 14 16 10 17 8 18 9 19
REMARK H PARENT 1 4 1 5
ROOT
ATOM      1  N   UNL     1     -25.297   8.472   5.446  1.00  0.00    -0.366 N 
ATOM      2  C   UNL     1     -25.761   8.960   6.637  1.00  0.00    +0.249 C 
ATOM      3  O   UNL     1     -25.027   9.081   7.607  1.00  0.00    -0.270 OA
ATOM      4  H   UNL     1     -25.827   8.555   4.589  1.00  0.00    +0.159 HD
ATOM      5  H   UNL     1     -24.299   8.317   5.377  1.00  0.00    +0.159 HD
ENDROOT
BRANCH   2   6
ATOM      6  C   UNL     1     -27.199   9.335   6.662  1.00  0.00    +0.048 A 
ATOM      7  C   UNL     1     -27.651  10.602   6.229  1.00  0.00    -0.005 A 
ATOM      8  C   UNL     1     -28.089   8.371   7.147  1.00  0.00    +0.023 A 
ATOM      9  C   UNL     1     -26.775  11.597   5.728  1.00  0.00    +0.009 A 
ATOM     10  C   UNL     1     -29.047  10.880   6.284  1.00  0.00    -0.010 A 
ATOM     11  C   UNL     1     -29.457   8.627   7.209  1.00  0.00    -0.017 A 
ATOM     12  C   UNL     1     -27.232  12.840   5.294  1.00  0.00    +0.001 A 
ATOM     13  C   UNL     1     -29.471  12.158   5.833  1.00  0.00    +0.009 A 
ATOM     14  C   UNL     1     -29.962   9.878   6.780  1.00  0.00    -0.010 A 
ATOM     15  C   UNL     1     -30.319   7.631   7.703  1.00  0.00    +0.009 A 
ATOM     16  C   UNL     1     -28.583  13.121   5.349  1.00  0.00    +0.001 A 
ATOM     17  C   UNL     1     -31.368  10.054   6.876  1.00  0.00    +0.009 A 
ATOM     18  C   UNL     1     -31.692   7.845   7.782  1.00  0.00    +0.001 A 
ATOM     19  C   UNL     1     -32.217   9.058   7.367  1.00  0.00    +0.001 A 
ENDBRANCH   2   6
TORSDOF 1
ENDMDL
MODEL 4
REMARK VINA RESULT:    -9.296      2.216      4.892
REMARK INTER + INTRA:          -9.956
REMARK INTER:                 -10.268
REMARK INTRA:                   0.312
REMARK UNBOUND:                -0.116
REMARK SMILES NC(=O)c1cc2ccccc2c2ccccc12
REMARK SMILES IDX 1 1 2 2 3 3 4 6 17 7 5 8 16 9 12 10 6 11 15 12 13 13 11 14
REMARK SMILES IDX 7 15 14 16 10 17 8 18 9 19
REMARK H PARENT 1 4 1 5
ROOT
ATOM      1  N   UNL     1     -26.109   6.811   7.055  1.00  0.00    -0.366 N 
ATOM      2  C   UNL     1     -27.227   7.229   7.727  1.00  0.00    +0.249 C 
ATOM      3  O   UNL     1     -27.664   6.610   8.684  1.00  0.00    -0.270 OA
ATOM      4  H   UNL     1     -25.622   7.409   6.403  1.00  0.00    +0.159 HD
ATOM      5  H   UNL     1     -25.607   6.028   7.454  1.00  0.00    +0.159 HD
ENDROOT
BRANCH   2   6
ATOM      6  C   UNL     1     -27.853   8.477   7.219  1.00  0.00    +0.048 A 
ATOM      7  C   UNL     1     -29.253   8.669   7.219  1.00  0.00    -0.005 A 
ATOM      8  C   UNL     1     -26.984   9.458   6.726  1.00  0.00    +0.023 A 
ATOM      9  C   UNL     1     -30.157   7.698   7.717  1.00  0.00    +0.009 A 
ATOM     10  C   UNL     1     -29.770   9.896   6.716  1.00  0.00    -0.010 A 
ATOM     11  C   UNL     1     -27.473  10.663   6.228  1.00  0.00    -0.017 A 
ATOM     12  C   UNL     1     -31.536   7.901   7.722  1.00  0.00    +0.001 A 
ATOM     13  C   UNL     1     -31.180  10.063   6.739  1.00  0.00    +0.009 A 
ATOM     14  C   UNL     1     -28.868  10.907   6.214  1.00  0.00    -0.010 A 
ATOM     15  C   UNL     1     -26.567  11.623   5.741  1.00  0.00    +0.009 A 
ATOM     16  C   UNL     1     -32.048   9.086   7.231  1.00  0.00    +0.001 A 
ATOM     17  C   UNL     1     -29.281  12.161   5.691  1.00  0.00    +0.009 A 
ATOM     18  C   UNL     1     -27.013  12.840   5.236  1.00  0.00    +0.001 A 
ATOM     19  C   UNL     1     -28.373  13.110   5.212  1.00  0.00    +0.001 A 
ENDBRANCH   2   6
TORSDOF 1
ENDMDL
MODEL 5
REMARK VINA RESULT:    -8.852      2.271      4.747
REMARK INTER + INTRA:          -9.486
REMARK INTER:                 -10.017
REMARK INTRA:                   0.531
REMARK UNBOUND:                -0.116
REMARK SMILES NC(=O)c1cc2ccccc2c2ccccc12
REMARK SMILES IDX 1 1 2 2 3 3 4 6 17 7 5 8 16 9 12 10 6 11 15 12 13 13 11 14
REMARK SMILES IDX 7 15 14 16 10 17 8 18 9 19
REMARK H PARENT 1 4 1 5
ROOT
ATOM      1  N   UNL     1     -27.509  12.967   5.035  1.00  0.00    -0.366 N 
ATOM      2  C   UNL     1     -26.769  11.858   5.346  1.00  0.00    +0.249 C 
ATOM      3  O   UNL     1     -25.565  11.816   5.143  1.00  0.00    -0.270 OA
ATOM      4  H   UNL     1     -28.450  13.097   5.378  1.00  0.00    +0.159 HD
ATOM      5  H   UNL     1     -26.995  13.784   4.729  1.00  0.00    +0.159 HD
ENDROOT
BRANCH   2   6
ATOM      6  C   UNL     1     -27.526  10.729   5.948  1.00  0.00    +0.048 A 
ATOM      7  C   UNL     1     -26.895   9.525   6.336  1.00  0.00    -0.005 A 
ATOM      8  C   UNL     1     -28.904  10.913   6.105  1.00  0.00    +0.023 A 
ATOM      9  C   UNL     1     -25.501   9.312   6.195  1.00  0.00    +0.009 A 
ATOM     10  C   UNL     1     -27.694   8.494   6.907  1.00  0.00    -0.010 A 
ATOM     11  C   UNL     1     -29.701   9.914   6.660  1.00  0.00    -0.017 A 
ATOM     12  C   UNL     1     -24.888   8.125   6.589  1.00  0.00    +0.001 A 
ATOM     13  C   UNL     1     -27.030   7.301   7.295  1.00  0.00    +0.009 A 
ATOM     14  C   UNL     1     -29.115   8.691   7.072  1.00  0.00    -0.010 A 
ATOM     15  C   UNL     1     -31.082  10.136   6.800  1.00  0.00    +0.009 A 
ATOM     16  C   UNL     1     -25.655   7.117   7.139  1.00  0.00    +0.001 A 
ATOM     17  C   UNL     1     -29.999   7.729   7.628  1.00  0.00    +0.009 A 
ATOM     18  C   UNL     1     -31.914   9.166   7.350  1.00  0.00    +0.001 A 
ATOM     19  C   UNL     1     -31.371   7.960   7.765  1.00  0.00    +0.001 A 
ENDBRANCH   2   6
TORSDOF 1
ENDMDL
MODEL 6
REMARK VINA RESULT:    -8.122      1.531      3.565
REMARK INTER + INTRA:          -8.713
REMARK INTER:                  -9.606
REMARK INTRA:                   0.894
REMARK UNBOUND:                -0.116
REMARK SMILES NC(=O)c1cc2ccccc2c2ccccc12
REMARK SMILES IDX 1 1 2 2 3 3 4 6 17 7 5 8 16 9 12 10 6 11 15 12 13 13 11 14
REMARK SMILES IDX 7 15 14 16 10 17 8 18 9 19
REMARK H PARENT 1 4 1 5
ROOT
ATOM      1  N   UNL     1     -30.837  11.859   6.651  1.00  0.00    -0.366 N 
ATOM      2  C   UNL     1     -29.564  11.693   6.177  1.00  0.00    +0.249 C 
ATOM      3  O   UNL     1     -29.021  12.547   5.493  1.00  0.00    -0.270 OA
ATOM      4  H   UNL     1     -31.221  11.268   7.375  1.00  0.00    +0.159 HD
ATOM      5  H   UNL     1     -31.264  12.763   6.496  1.00  0.00    +0.159 HD
ENDROOT
BRANCH   2   6
ATOM      6  C   UNL     1     -28.896  10.421   6.558  1.00  0.00    +0.048 A 
ATOM      7  C   UNL     1     -29.617   9.321   7.076  1.00  0.00    -0.005 A 
ATOM      8  C   UNL     1     -27.508  10.367   6.389  1.00  0.00    +0.023 A 
ATOM      9  C   UNL     1     -31.024   9.344   7.253  1.00  0.00    +0.009 A 
ATOM     10  C   UNL     1     -28.901   8.138   7.414  1.00  0.00    -0.010 A 
ATOM     11  C   UNL     1     -26.791   9.218   6.717  1.00  0.00    -0.017 A 
ATOM     12  C   UNL     1     -31.726   8.250   7.754  1.00  0.00    +0.001 A 
ATOM     13  C   UNL     1     -29.654   7.047   7.922  1.00  0.00    +0.009 A 
ATOM     14  C   UNL     1     -27.469   8.086   7.232  1.00  0.00    -0.010 A 
ATOM     15  C   UNL     1     -25.397   9.204   6.533  1.00  0.00    +0.009 A 
ATOM     16  C   UNL     1     -31.039   7.100   8.091  1.00  0.00    +0.001 A 
ATOM     17  C   UNL     1     -26.662   6.958   7.538  1.00  0.00    +0.009 A 
ATOM     18  C   UNL     1     -24.643   8.078   6.847  1.00  0.00    +0.001 A 
ATOM     19  C   UNL     1     -25.277   6.952   7.349  1.00  0.00    +0.001 A 
ENDBRANCH   2   6
TORSDOF 1
ENDMDL
MODEL 7
REMARK VINA RESULT:    -8.050      7.702      9.775
REMARK INTER + INTRA:          -8.637
REMARK INTER:                  -8.615
REMARK INTRA:                  -0.022
REMARK UNBOUND:                -0.116
REMARK SMILES NC(=O)c1cc2ccccc2c2ccccc12
REMARK SMILES IDX 1 1 2 2 3 3 4 6 17 7 5 8 16 9 12 10 6 11 15 12 13 13 11 14
REMARK SMILES IDX 7 15 14 16 10 17 8 18 9 19
REMARK H PARENT 1 4 1 5
ROOT
ATOM      1  N   UNL     1     -34.351   7.621   7.726  1.00  0.00    -0.366 N 
ATOM      2  C   UNL     1     -34.505   6.319   7.332  1.00  0.00    +0.249 C 
ATOM      3  O   UNL     1     -34.557   6.011   6.151  1.00  0.00    -0.270 OA
ATOM      4  H   UNL     1     -34.104   7.869   8.673  1.00  0.00    +0.159 HD
ATOM      5  H   UNL     1     -34.178   8.298   6.994  1.00  0.00    +0.159 HD
ENDROOT
BRANCH   2   6
ATOM      6  C   UNL     1     -34.592   5.321   8.430  1.00  0.00    +0.048 A 
ATOM      7  C   UNL     1     -35.758   5.169   9.214  1.00  0.00    -0.005 A 
ATOM      8  C   UNL     1     -33.453   4.541   8.660  1.00  0.00    +0.023 A 
ATOM      9  C   UNL     1     -36.929   5.940   9.002  1.00  0.00    +0.009 A 
ATOM     10  C   UNL     1     -35.759   4.188  10.246  1.00  0.00    -0.010 A 
ATOM     11  C   UNL     1     -33.436   3.579   9.667  1.00  0.00    -0.017 A 
ATOM     12  C   UNL     1     -38.076   5.775   9.774  1.00  0.00    +0.001 A 
ATOM     13  C   UNL     1     -36.948   4.052  11.010  1.00  0.00    +0.009 A 
ATOM     14  C   UNL     1     -34.583   3.382  10.475  1.00  0.00    -0.010 A 
ATOM     15  C   UNL     1     -32.272   2.815   9.866  1.00  0.00    +0.009 A 
ATOM     16  C   UNL     1     -38.085   4.830  10.781  1.00  0.00    +0.001 A 
ATOM     17  C   UNL     1     -34.480   2.379  11.476  1.00  0.00    +0.009 A 
ATOM     18  C   UNL     1     -32.212   1.842  10.860  1.00  0.00    +0.001 A 
ATOM     19  C   UNL     1     -33.319   1.624  11.665  1.00  0.00    +0.001 A 
ENDBRANCH   2   6
TORSDOF 1
ENDMDL
MODEL 8
REMARK VINA RESULT:    -7.661      9.039     11.255
REMARK INTER + INTRA:          -8.225
REMARK INTER:                  -8.120
REMARK INTRA:                  -0.105
REMARK UNBOUND:                -0.116
REMARK SMILES NC(=O)c1cc2ccccc2c2ccccc12
REMARK SMILES IDX 1 1 2 2 3 3 4 6 17 7 5 8 16 9 12 10 6 11 15 12 13 13 11 14
REMARK SMILES IDX 7 15 14 16 10 17 8 18 9 19
REMARK H PARENT 1 4 1 5
ROOT
ATOM      1  N   UNL     1     -24.145  -1.500  10.409  1.00  0.00    -0.366 N 
ATOM      2  C   UNL     1     -25.360  -1.049   9.969  1.00  0.00    +0.249 C 
ATOM      3  O   UNL     1     -25.773  -1.315   8.850  1.00  0.00    -0.270 OA
ATOM      4  H   UNL     1     -23.881  -1.465  11.383  1.00  0.00    +0.159 HD
ATOM      5  H   UNL     1     -23.657  -2.150   9.805  1.00  0.00    +0.159 HD
ENDROOT
BRANCH   2   6
ATOM      6  C   UNL     1     -26.132  -0.231  10.941  1.00  0.00    +0.048 A 
ATOM      7  C   UNL     1     -25.928   1.161  11.080  1.00  0.00    -0.005 A 
ATOM      8  C   UNL     1     -27.071  -0.911  11.725  1.00  0.00    +0.023 A 
ATOM      9  C   UNL     1     -24.989   1.878  10.296  1.00  0.00    +0.009 A 
ATOM     10  C   UNL     1     -26.711   1.870  12.034  1.00  0.00    -0.010 A 
ATOM     11  C   UNL     1     -27.844  -0.233  12.665  1.00  0.00    -0.017 A 
ATOM     12  C   UNL     1     -24.802   3.251  10.434  1.00  0.00    +0.001 A 
ATOM     13  C   UNL     1     -26.490   3.268  12.143  1.00  0.00    +0.009 A 
ATOM     14  C   UNL     1     -27.683   1.164  12.836  1.00  0.00    -0.010 A 
ATOM     15  C   UNL     1     -28.776  -0.952  13.434  1.00  0.00    +0.009 A 
ATOM     16  C   UNL     1     -25.554   3.947  11.361  1.00  0.00    +0.001 A 
ATOM     17  C   UNL     1     -28.512   1.775  13.814  1.00  0.00    +0.009 A 
ATOM     18  C   UNL     1     -29.569  -0.315  14.382  1.00  0.00    +0.001 A 
ATOM     19  C   UNL     1     -29.437   1.052  14.572  1.00  0.00    +0.001 A 
ENDBRANCH   2   6
TORSDOF 1
ENDMDL
MODEL 9
REMARK VINA RESULT:    -7.578      7.483     10.366
REMARK INTER + INTRA:          -8.137
REMARK INTER:                  -8.130
REMARK INTRA:                  -0.008
REMARK UNBOUND:                -0.116
REMARK SMILES NC(=O)c1cc2ccccc2c2ccccc12
REMARK SMILES IDX 1 1 2 2 3 3 4 6 17 7 5 8 16 9 12 10 6 11 15 12 13 13 11 14
REMARK SMILES IDX 7 15 14 16 10 17 8 18 9 19
REMARK H PARENT 1 4 1 5
ROOT
ATOM      1  N   UNL     1     -33.686   5.670   6.009  1.00  0.00    -0.366 N 
ATOM      2  C   UNL     1     -33.345   5.886   7.317  1.00  0.00    +0.249 C 
ATOM      3  O   UNL     1     -32.336   6.505   7.620  1.00  0.00    -0.270 OA
ATOM      4  H   UNL     1     -34.605   5.345   5.742  1.00  0.00    +0.159 HD
ATOM      5  H   UNL     1     -33.122   6.137   5.310  1.00  0.00    +0.159 HD
ENDROOT
BRANCH   2   6
ATOM      6  C   UNL     1     -34.282   5.328   8.327  1.00  0.00    +0.048 A 
ATOM      7  C   UNL     1     -33.903   4.293   9.212  1.00  0.00    -0.005 A 
ATOM      8  C   UNL     1     -35.571   5.873   8.353  1.00  0.00    +0.023 A 
ATOM      9  C   UNL     1     -32.604   3.726   9.213  1.00  0.00    +0.009 A 
ATOM     10  C   UNL     1     -34.862   3.818  10.150  1.00  0.00    -0.010 A 
ATOM     11  C   UNL     1     -36.522   5.418   9.263  1.00  0.00    -0.017 A 
ATOM     12  C   UNL     1     -32.238   2.713  10.097  1.00  0.00    +0.001 A 
ATOM     13  C   UNL     1     -34.449   2.785  11.032  1.00  0.00    +0.009 A 
ATOM     14  C   UNL     1     -36.189   4.388  10.176  1.00  0.00    -0.010 A 
ATOM     15  C   UNL     1     -37.807   5.990   9.256  1.00  0.00    +0.009 A 
ATOM     16  C   UNL     1     -33.163   2.241  11.007  1.00  0.00    +0.001 A 
ATOM     17  C   UNL     1     -37.218   3.985  11.069  1.00  0.00    +0.009 A 
ATOM     18  C   UNL     1     -38.787   5.566  10.149  1.00  0.00    +0.001 A 
ATOM     19  C   UNL     1     -38.491   4.562  11.057  1.00  0.00    +0.001 A 
ENDBRANCH   2   6
TORSDOF 1
ENDMDL
