MODEL 1
REMARK VINA RESULT:   -10.648      0.000      0.000
REMARK INTER + INTRA:         -12.627
REMARK INTER:                 -12.515
REMARK INTRA:                  -0.112
REMARK UNBOUND:                -0.112
REMARK SMILES Clc1ccc(Nc2ncnc3c2cnn3-c2ccccc2)cc1
REMARK SMILES IDX 6 1 5 3 2 4 3 5 23 6 4 7 22 8 1 9 7 10 12 11 8 12 13 13
REMARK SMILES IDX 11 14 9 15 14 16 15 17 10 18 16 19 17 20 21 21 18 22 20 23
REMARK SMILES IDX 19 24
REMARK H PARENT 6 2
ROOT
ATOM      1  N   UNL     1     -26.729   4.956   8.750  1.00  0.00    -0.340 N 
ATOM      2  H   UNL     1     -27.727   4.810   8.787  1.00  0.00    +0.168 HD
ENDROOT
BRANCH   1   3
ATOM      3  C   UNL     1     -25.986   3.959   9.409  1.00  0.00    +0.040 A 
ATOM      4  C   UNL     1     -24.583   1.857  10.665  1.00  0.00    +0.041 A 
ATOM      5  C   UNL     1     -24.224   3.177  10.905  1.00  0.00    +0.022 A 
ATOM      6  C   UNL     1     -25.636   1.569   9.804  1.00  0.00    +0.022 A 
ATOM      7  C   UNL     1     -24.923   4.218  10.280  1.00  0.00    +0.027 A 
ATOM      8  C   UNL     1     -26.330   2.614   9.184  1.00  0.00    +0.027 A 
ATOM      9 Cl   UNL     1     -23.726   0.578  11.432  1.00  0.00    -0.084 Cl
ENDBRANCH   1   3
BRANCH   1  10
ATOM     10  C   UNL     1     -26.357   6.113   8.048  1.00  0.00    +0.144 A 
ATOM     11  C   UNL     1     -27.280   7.146   7.805  1.00  0.00    +0.082 A 
ATOM     12  N   UNL     1     -25.100   6.293   7.574  1.00  0.00    -0.218 NA
ATOM     13  C   UNL     1     -28.632   7.403   8.086  1.00  0.00    +0.150 A 
ATOM     14  C   UNL     1     -26.852   8.267   7.106  1.00  0.00    +0.168 A 
ATOM     15  C   UNL     1     -24.796   7.420   6.909  1.00  0.00    +0.226 A 
ATOM     16  N   UNL     1     -29.052   8.575   7.619  1.00  0.00    -0.174 NA
ATOM     17  N   UNL     1     -27.953   9.120   7.007  1.00  0.00    -0.215 N 
ATOM     18  N   UNL     1     -25.604   8.451   6.632  1.00  0.00    -0.216 NA
BRANCH  17  19
ATOM     19  C   UNL     1     -28.057  10.404   6.388  1.00  0.00    +0.067 A 
ATOM     20  C   UNL     1     -27.002  10.966   5.658  1.00  0.00    +0.028 A 
ATOM     21  C   UNL     1     -29.257  11.129   6.513  1.00  0.00    +0.028 A 
ATOM     22  C   UNL     1     -27.146  12.226   5.067  1.00  0.00    +0.002 A 
ATOM     23  C   UNL     1     -29.394  12.386   5.920  1.00  0.00    +0.002 A 
ATOM     24  C   UNL     1     -28.338  12.934   5.197  1.00  0.00    +0.000 A 
ENDBRANCH  17  19
ENDBRANCH   1  10
TORSDOF 3
ENDMDL
MODEL 2
REMARK VINA RESULT:   -10.470      1.510      1.634
REMARK INTER + INTRA:         -12.417
REMARK INTER:                 -12.268
REMARK INTRA:                  -0.149
REMARK UNBOUND:                -0.112
REMARK SMILES Clc1ccc(Nc2ncnc3c2cnn3-c2ccccc2)cc1
REMARK SMILES IDX 6 1 5 3 2 4 3 5 23 6 4 7 22 8 1 9 7 10 12 11 8 12 13 13
REMARK SMILES IDX 11 14 9 15 14 16 15 17 10 18 16 19 17 20 21 21 18 22 20 23
REMARK SMILES IDX 19 24
REMARK H PARENT 6 2
ROOT
ATOM      1  N   UNL     1     -25.465   4.827   8.147  1.00  0.00    -0.340 N 
ATOM      2  H   UNL     1     -24.958   4.178   7.561  1.00  0.00    +0.168 HD
ENDROOT
BRANCH   1   3
ATOM      3  C   UNL     1     -25.938   4.258   9.343  1.00  0.00    +0.040 A 
ATOM      4  C   UNL     1     -27.003   3.059  11.665  1.00  0.00    +0.041 A 
ATOM      5  C   UNL     1     -25.846   3.824  11.743  1.00  0.00    +0.022 A 
ATOM      6  C   UNL     1     -27.639   2.883  10.442  1.00  0.00    +0.022 A 
ATOM      7  C   UNL     1     -25.320   4.418  10.587  1.00  0.00    +0.027 A 
ATOM      8  C   UNL     1     -27.109   3.480   9.293  1.00  0.00    +0.027 A 
ATOM      9 Cl   UNL     1     -27.649   2.330  13.082  1.00  0.00    -0.084 Cl
ENDBRANCH   1   3
BRANCH   1  10
ATOM     10  C   UNL     1     -25.554   6.119   7.606  1.00  0.00    +0.144 A 
ATOM     11  C   UNL     1     -26.755   6.850   7.659  1.00  0.00    +0.082 A 
ATOM     12  N   UNL     1     -24.496   6.724   7.012  1.00  0.00    -0.218 NA
ATOM     13  C   UNL     1     -28.056   6.653   8.149  1.00  0.00    +0.150 A 
ATOM     14  C   UNL     1     -26.781   8.124   7.108  1.00  0.00    +0.168 A 
ATOM     15  C   UNL     1     -24.636   7.963   6.511  1.00  0.00    +0.226 A 
ATOM     16  N   UNL     1     -28.858   7.694   7.942  1.00  0.00    -0.174 NA
ATOM     17  N   UNL     1     -28.075   8.613   7.294  1.00  0.00    -0.215 N 
ATOM     18  N   UNL     1     -25.733   8.730   6.515  1.00  0.00    -0.216 NA
BRANCH  17  19
ATOM     19  C   UNL     1     -28.636   9.872   6.916  1.00  0.00    +0.067 A 
ATOM     20  C   UNL     1     -27.955  10.770   6.083  1.00  0.00    +0.028 A 
ATOM     21  C   UNL     1     -29.911  10.225   7.393  1.00  0.00    +0.028 A 
ATOM     22  C   UNL     1     -28.540  11.993   5.736  1.00  0.00    +0.002 A 
ATOM     23  C   UNL     1     -30.490  11.447   7.042  1.00  0.00    +0.002 A 
ATOM     24  C   UNL     1     -29.804  12.331   6.214  1.00  0.00    +0.000 A 
ENDBRANCH  17  19
ENDBRANCH   1  10
TORSDOF 3
ENDMDL
MODEL 3
REMARK VINA RESULT:    -9.702      4.328      5.721
REMARK INTER + INTRA:         -11.515
REMARK INTER:                 -11.315
REMARK INTRA:                  -0.200
REMARK UNBOUND:                -0.112
REMARK SMILES Clc1ccc(Nc2ncnc3c2cnn3-c2ccccc2)cc1
REMARK SMILES IDX 6 1 5 3 2 4 3 5 23 6 4 7 22 8 1 9 7 10 12 11 8 12 13 13
REMARK SMILES IDX 11 14 9 15 14 16 15 17 10 18 16 19 17 20 21 21 18 22 20 23
REMARK SMILES IDX 19 24
REMARK H PARENT 6 2
ROOT
ATOM      1  N   UNL     1     -31.137   5.496   8.836  1.00  0.00    -0.340 N 
ATOM      2  H   UNL     1     -30.196   5.168   9.002  1.00  0.00    +0.168 HD
ENDROOT
BRANCH   1   3
ATOM      3  C   UNL     1     -32.130   4.671   9.394  1.00  0.00    +0.040 A 
ATOM      4  C   UNL     1     -34.050   2.896  10.457  1.00  0.00    +0.041 A 
ATOM      5  C   UNL     1     -34.188   4.266  10.642  1.00  0.00    +0.022 A 
ATOM      6  C   UNL     1     -32.966   2.397   9.746  1.00  0.00    +0.022 A 
ATOM      7  C   UNL     1     -33.232   5.144  10.113  1.00  0.00    +0.027 A 
ATOM      8  C   UNL     1     -32.016   3.280   9.220  1.00  0.00    +0.027 A 
ATOM      9 Cl   UNL     1     -35.222   1.818  11.106  1.00  0.00    -0.084 Cl
ENDBRANCH   1   3
BRANCH   1  10
ATOM     10  C   UNL     1     -31.194   6.687   8.096  1.00  0.00    +0.144 A 
ATOM     11  C   UNL     1     -30.039   7.457   7.865  1.00  0.00    +0.082 A 
ATOM     12  N   UNL     1     -32.354   7.152   7.571  1.00  0.00    -0.218 NA
ATOM     13  C   UNL     1     -28.675   7.386   8.191  1.00  0.00    +0.150 A 
ATOM     14  C   UNL     1     -30.159   8.625   7.124  1.00  0.00    +0.168 A 
ATOM     15  C   UNL     1     -32.352   8.299   6.870  1.00  0.00    +0.226 A 
ATOM     16  N   UNL     1     -27.967   8.406   7.713  1.00  0.00    -0.174 NA
ATOM     17  N   UNL     1     -28.881   9.183   7.049  1.00  0.00    -0.215 N 
ATOM     18  N   UNL     1     -31.309   9.093   6.600  1.00  0.00    -0.216 NA
BRANCH  17  19
ATOM     19  C   UNL     1     -28.447  10.383   6.405  1.00  0.00    +0.067 A 
ATOM     20  C   UNL     1     -29.273  11.509   6.295  1.00  0.00    +0.028 A 
ATOM     21  C   UNL     1     -27.150  10.438   5.862  1.00  0.00    +0.028 A 
ATOM     22  C   UNL     1     -28.809  12.664   5.656  1.00  0.00    +0.002 A 
ATOM     23  C   UNL     1     -26.693  11.595   5.226  1.00  0.00    +0.002 A 
ATOM     24  C   UNL     1     -27.523  12.707   5.123  1.00  0.00    +0.000 A 
ENDBRANCH  17  19
ENDBRANCH   1  10
TORSDOF 3
ENDMDL
MODEL 4
REMARK VINA RESULT:    -9.656      6.290      8.023
REMARK INTER + INTRA:         -11.461
REMARK INTER:                 -10.828
REMARK INTRA:                  -0.633
REMARK UNBOUND:                -0.112
REMARK SMILES Clc1ccc(Nc2ncnc3c2cnn3-c2ccccc2)cc1
REMARK SMILES IDX 6 1 5 3 2 4 3 5 23 6 4 7 22 8 1 9 7 10 12 11 8 12 13 13
REMARK SMILES IDX 11 14 9 15 14 16 15 17 10 18 16 19 17 20 21 21 18 22 20 23
REMARK SMILES IDX 19 24
REMARK H PARENT 6 2
ROOT
ATOM      1  N   UNL     1     -34.426   4.411   6.998  1.00  0.00    -0.340 N 
ATOM      2  H   UNL     1     -34.132   3.518   6.631  1.00  0.00    +0.168 HD
ENDROOT
BRANCH   1   3
ATOM      3  C   UNL     1     -35.351   4.313   8.053  1.00  0.00    +0.040 A 
ATOM      4  C   UNL     1     -37.212   4.265  10.175  1.00  0.00    +0.041 A 
ATOM      5  C   UNL     1     -36.721   3.075   9.650  1.00  0.00    +0.022 A 
ATOM      6  C   UNL     1     -36.787   5.481   9.656  1.00  0.00    +0.022 A 
ATOM      7  C   UNL     1     -35.797   3.104   8.597  1.00  0.00    +0.027 A 
ATOM      8  C   UNL     1     -35.863   5.502   8.604  1.00  0.00    +0.027 A 
ATOM      9 Cl   UNL     1     -38.346   4.232  11.467  1.00  0.00    -0.084 Cl
ENDBRANCH   1   3
BRANCH   1  10
ATOM     10  C   UNL     1     -33.829   5.507   6.355  1.00  0.00    +0.144 A 
ATOM     11  C   UNL     1     -32.802   6.243   6.974  1.00  0.00    +0.082 A 
ATOM     12  N   UNL     1     -34.207   5.906   5.116  1.00  0.00    -0.218 NA
ATOM     13  C   UNL     1     -32.107   6.212   8.193  1.00  0.00    +0.150 A 
ATOM     14  C   UNL     1     -32.250   7.316   6.287  1.00  0.00    +0.168 A 
ATOM     15  C   UNL     1     -33.601   6.961   4.546  1.00  0.00    +0.226 A 
ATOM     16  N   UNL     1     -31.188   7.168   8.299  1.00  0.00    -0.174 NA
ATOM     17  N   UNL     1     -31.270   7.861   7.119  1.00  0.00    -0.215 N 
ATOM     18  N   UNL     1     -32.621   7.718   5.055  1.00  0.00    -0.216 NA
BRANCH  17  19
ATOM     19  C   UNL     1     -30.403   8.975   6.897  1.00  0.00    +0.067 A 
ATOM     20  C   UNL     1     -29.024   8.820   6.709  1.00  0.00    +0.028 A 
ATOM     21  C   UNL     1     -30.949  10.272   6.865  1.00  0.00    +0.028 A 
ATOM     22  C   UNL     1     -28.211   9.938   6.493  1.00  0.00    +0.002 A 
ATOM     23  C   UNL     1     -30.133  11.383   6.649  1.00  0.00    +0.002 A 
ATOM     24  C   UNL     1     -28.763  11.216   6.464  1.00  0.00    +0.000 A 
ENDBRANCH  17  19
ENDBRANCH   1  10
TORSDOF 3
ENDMDL
MODEL 5
REMARK VINA RESULT:    -9.611      5.832      9.207
REMARK INTER + INTRA:         -11.409
REMARK INTER:                 -10.904
REMARK INTRA:                  -0.505
REMARK UNBOUND:                -0.112
REMARK SMILES Clc1ccc(Nc2ncnc3c2cnn3-c2ccccc2)cc1
REMARK SMILES IDX 6 1 5 3 2 4 3 5 23 6 4 7 22 8 1 9 7 10 12 11 8 12 13 13
REMARK SMILES IDX 11 14 9 15 14 16 15 17 10 18 16 19 17 20 21 21 18 22 20 23
REMARK SMILES IDX 19 24
REMARK H PARENT 6 2
ROOT
ATOM      1  N   UNL     1     -29.969   8.299   7.292  1.00  0.00    -0.340 N 
ATOM      2  H   UNL     1     -29.444   7.872   8.042  1.00  0.00    +0.168 HD
ENDROOT
BRANCH   1   3
ATOM      3  C   UNL     1     -29.379   9.471   6.785  1.00  0.00    +0.040 A 
ATOM      4  C   UNL     1     -28.325  11.894   5.794  1.00  0.00    +0.041 A 
ATOM      5  C   UNL     1     -27.544  10.745   5.802  1.00  0.00    +0.022 A 
ATOM      6  C   UNL     1     -29.628  11.852   6.275  1.00  0.00    +0.022 A 
ATOM      7  C   UNL     1     -28.071   9.544   6.295  1.00  0.00    +0.027 A 
ATOM      8  C   UNL     1     -30.148  10.649   6.765  1.00  0.00    +0.027 A 
ATOM      9 Cl   UNL     1     -27.679  13.369   5.190  1.00  0.00    -0.084 Cl
ENDBRANCH   1   3
BRANCH   1  10
ATOM     10  C   UNL     1     -31.142   7.604   6.961  1.00  0.00    +0.144 A 
ATOM     11  C   UNL     1     -31.726   6.692   7.859  1.00  0.00    +0.082 A 
ATOM     12  N   UNL     1     -31.767   7.775   5.770  1.00  0.00    -0.218 NA
ATOM     13  C   UNL     1     -31.457   6.204   9.148  1.00  0.00    +0.150 A 
ATOM     14  C   UNL     1     -32.888   6.035   7.475  1.00  0.00    +0.168 A 
ATOM     15  C   UNL     1     -32.888   7.084   5.505  1.00  0.00    +0.226 A 
ATOM     16  N   UNL     1     -32.352   5.315   9.570  1.00  0.00    -0.174 NA
ATOM     17  N   UNL     1     -33.245   5.202   8.537  1.00  0.00    -0.215 N 
ATOM     18  N   UNL     1     -33.513   6.201   6.292  1.00  0.00    -0.216 NA
BRANCH  17  19
ATOM     19  C   UNL     1     -34.356   4.312   8.661  1.00  0.00    +0.067 A 
ATOM     20  C   UNL     1     -34.203   2.920   8.625  1.00  0.00    +0.028 A 
ATOM     21  C   UNL     1     -35.648   4.847   8.826  1.00  0.00    +0.028 A 
ATOM     22  C   UNL     1     -35.317   2.083   8.752  1.00  0.00    +0.002 A 
ATOM     23  C   UNL     1     -36.756   4.006   8.952  1.00  0.00    +0.002 A 
ATOM     24  C   UNL     1     -36.590   2.624   8.915  1.00  0.00    +0.000 A 
ENDBRANCH  17  19
ENDBRANCH   1  10
TORSDOF 3
ENDMDL
MODEL 6
REMARK VINA RESULT:    -9.598      4.181      8.878
REMARK INTER + INTRA:         -11.393
REMARK INTER:                 -10.929
REMARK INTRA:                  -0.464
REMARK UNBOUND:                -0.112
REMARK SMILES Clc1ccc(Nc2ncnc3c2cnn3-c2ccccc2)cc1
REMARK SMILES IDX 6 1 5 3 2 4 3 5 23 6 4 7 22 8 1 9 7 10 12 11 8 12 13 13
REMARK SMILES IDX 11 14 9 15 14 16 15 17 10 18 16 19 17 20 21 21 18 22 20 23
REMARK SMILES IDX 19 24
REMARK H PARENT 6 2
ROOT
ATOM      1  N   UNL     1     -25.900   4.625   8.469  1.00  0.00    -0.340 N 
ATOM      2  H   UNL     1     -25.443   4.052   7.774  1.00  0.00    +0.168 HD
ENDROOT
BRANCH   1   3
ATOM      3  C   UNL     1     -26.350   5.863   7.976  1.00  0.00    +0.040 A 
ATOM      4  C   UNL     1     -27.121   8.362   6.914  1.00  0.00    +0.041 A 
ATOM      5  C   UNL     1     -27.976   7.671   7.764  1.00  0.00    +0.022 A 
ATOM      6  C   UNL     1     -25.883   7.823   6.586  1.00  0.00    +0.022 A 
ATOM      7  C   UNL     1     -27.589   6.430   8.289  1.00  0.00    +0.027 A 
ATOM      8  C   UNL     1     -25.503   6.584   7.115  1.00  0.00    +0.027 A 
ATOM      9 Cl   UNL     1     -27.594   9.884   6.269  1.00  0.00    -0.084 Cl
ENDBRANCH   1   3
BRANCH   1  10
ATOM     10  C   UNL     1     -25.964   4.025   9.736  1.00  0.00    +0.144 A 
ATOM     11  C   UNL     1     -27.109   3.322  10.153  1.00  0.00    +0.082 A 
ATOM     12  N   UNL     1     -24.934   4.090  10.615  1.00  0.00    -0.218 NA
ATOM     13  C   UNL     1     -28.367   2.999   9.619  1.00  0.00    +0.150 A 
ATOM     14  C   UNL     1     -27.112   2.749  11.418  1.00  0.00    +0.168 A 
ATOM     15  C   UNL     1     -25.047   3.497  11.815  1.00  0.00    +0.226 A 
ATOM     16  N   UNL     1     -29.122   2.285  10.449  1.00  0.00    -0.174 NA
ATOM     17  N   UNL     1     -28.351   2.124  11.571  1.00  0.00    -0.215 N 
ATOM     18  N   UNL     1     -26.091   2.811  12.296  1.00  0.00    -0.216 NA
BRANCH  17  19
ATOM     19  C   UNL     1     -28.870   1.389  12.681  1.00  0.00    +0.067 A 
ATOM     20  C   UNL     1     -28.633   1.777  14.006  1.00  0.00    +0.028 A 
ATOM     21  C   UNL     1     -29.643   0.239  12.440  1.00  0.00    +0.028 A 
ATOM     22  C   UNL     1     -29.160   1.030  15.065  1.00  0.00    +0.002 A 
ATOM     23  C   UNL     1     -30.166  -0.503  13.501  1.00  0.00    +0.002 A 
ATOM     24  C   UNL     1     -29.924  -0.107  14.814  1.00  0.00    +0.000 A 
ENDBRANCH  17  19
ENDBRANCH   1  10
TORSDOF 3
ENDMDL
MODEL 7
REMARK VINA RESULT:    -9.474      4.368      9.248
REMARK INTER + INTRA:         -11.247
REMARK INTER:                 -10.597
REMARK INTRA:                  -0.651
REMARK UNBOUND:                -0.112
REMARK SMILES Clc1ccc(Nc2ncnc3c2cnn3-c2ccccc2)cc1
REMARK SMILES IDX 6 1 5 3 2 4 3 5 23 6 4 7 22 8 1 9 7 10 12 11 8 12 13 13
REMARK SMILES IDX 11 14 9 15 14 16 15 17 10 18 16 19 17 20 21 21 18 22 20 23
REMARK SMILES IDX 19 24
REMARK H PARENT 6 2
ROOT
ATOM      1  N   UNL     1     -25.340   3.837   9.096  1.00  0.00    -0.340 N 
ATOM      2  H   UNL     1     -24.335   3.788   9.190  1.00  0.00    +0.168 HD
ENDROOT
BRANCH   1   3
ATOM      3  C   UNL     1     -25.793   5.016   8.476  1.00  0.00    +0.040 A 
ATOM      4  C   UNL     1     -26.835   7.362   7.303  1.00  0.00    +0.041 A 
ATOM      5  C   UNL     1     -25.538   6.955   7.016  1.00  0.00    +0.022 A 
ATOM      6  C   UNL     1     -27.622   6.614   8.170  1.00  0.00    +0.022 A 
ATOM      7  C   UNL     1     -25.024   5.789   7.601  1.00  0.00    +0.027 A 
ATOM      8  C   UNL     1     -27.103   5.451   8.749  1.00  0.00    +0.027 A 
ATOM      9 Cl   UNL     1     -27.467   8.792   6.587  1.00  0.00    -0.084 Cl
ENDBRANCH   1   3
BRANCH   1  10
ATOM     10  C   UNL     1     -26.007   2.714   9.607  1.00  0.00    +0.144 A 
ATOM     11  C   UNL     1     -26.528   2.708  10.914  1.00  0.00    +0.082 A 
ATOM     12  N   UNL     1     -26.182   1.587   8.874  1.00  0.00    -0.218 NA
ATOM     13  C   UNL     1     -26.590   3.597  11.999  1.00  0.00    +0.150 A 
ATOM     14  C   UNL     1     -27.179   1.567  11.363  1.00  0.00    +0.168 A 
ATOM     15  C   UNL     1     -26.829   0.540   9.413  1.00  0.00    +0.226 A 
ATOM     16  N   UNL     1     -27.219   3.092  13.057  1.00  0.00    -0.174 NA
ATOM     17  N   UNL     1     -27.588   1.829  12.672  1.00  0.00    -0.215 N 
ATOM     18  N   UNL     1     -27.356   0.443  10.639  1.00  0.00    -0.216 NA
BRANCH  17  19
ATOM     19  C   UNL     1     -28.298   0.994  13.589  1.00  0.00    +0.067 A 
ATOM     20  C   UNL     1     -27.644   0.069  14.413  1.00  0.00    +0.028 A 
ATOM     21  C   UNL     1     -29.699   1.102  13.670  1.00  0.00    +0.028 A 
ATOM     22  C   UNL     1     -28.377  -0.729  15.298  1.00  0.00    +0.002 A 
ATOM     23  C   UNL     1     -30.424   0.302  14.556  1.00  0.00    +0.002 A 
ATOM     24  C   UNL     1     -29.763  -0.613  15.369  1.00  0.00    +0.000 A 
ENDBRANCH  17  19
ENDBRANCH   1  10
TORSDOF 3
ENDMDL
MODEL 8
REMARK VINA RESULT:    -9.382      3.358      8.542
REMARK INTER + INTRA:         -11.140
REMARK INTER:                 -10.999
REMARK INTRA:                  -0.140
REMARK UNBOUND:                -0.112
REMARK SMILES Clc1ccc(Nc2ncnc3c2cnn3-c2ccccc2)cc1
REMARK SMILES IDX 6 1 5 3 2 4 3 5 23 6 4 7 22 8 1 9 7 10 12 11 8 12 13 13
REMARK SMILES IDX 11 14 9 15 14 16 15 17 10 18 16 19 17 20 21 21 18 22 20 23
REMARK SMILES IDX 19 24
REMARK H PARENT 6 2
ROOT
ATOM      1  N   UNL     1     -28.141   7.732   7.537  1.00  0.00    -0.340 N 
ATOM      2  H   UNL     1     -29.048   7.364   7.787  1.00  0.00    +0.168 HD
ENDROOT
BRANCH   1   3
ATOM      3  C   UNL     1     -28.191   9.005   6.941  1.00  0.00    +0.040 A 
ATOM      4  C   UNL     1     -28.417  11.587   5.823  1.00  0.00    +0.041 A 
ATOM      5  C   UNL     1     -27.364  10.757   5.457  1.00  0.00    +0.022 A 
ATOM      6  C   UNL     1     -29.362  11.146   6.741  1.00  0.00    +0.022 A 
ATOM      7  C   UNL     1     -27.256   9.476   6.014  1.00  0.00    +0.027 A 
ATOM      8  C   UNL     1     -29.248   9.865   7.293  1.00  0.00    +0.027 A 
ATOM      9 Cl   UNL     1     -28.552  13.159   5.140  1.00  0.00    -0.084 Cl
ENDBRANCH   1   3
BRANCH   1  10
ATOM     10  C   UNL     1     -27.080   6.871   7.855  1.00  0.00    +0.144 A 
ATOM     11  C   UNL     1     -27.314   5.606   8.425  1.00  0.00    +0.082 A 
ATOM     12  N   UNL     1     -25.787   7.210   7.630  1.00  0.00    -0.218 NA
ATOM     13  C   UNL     1     -28.427   4.848   8.823  1.00  0.00    +0.150 A 
ATOM     14  C   UNL     1     -26.223   4.798   8.716  1.00  0.00    +0.168 A 
ATOM     15  C   UNL     1     -24.809   6.347   7.953  1.00  0.00    +0.226 A 
ATOM     16  N   UNL     1     -28.102   3.661   9.326  1.00  0.00    -0.174 NA
ATOM     17  N   UNL     1     -26.733   3.620   9.265  1.00  0.00    -0.215 N 
ATOM     18  N   UNL     1     -24.935   5.130   8.496  1.00  0.00    -0.216 NA
BRANCH  17  19
ATOM     19  C   UNL     1     -26.043   2.460   9.735  1.00  0.00    +0.067 A 
ATOM     20  C   UNL     1     -24.927   2.549  10.578  1.00  0.00    +0.028 A 
ATOM     21  C   UNL     1     -26.495   1.188   9.341  1.00  0.00    +0.028 A 
ATOM     22  C   UNL     1     -24.280   1.388  11.016  1.00  0.00    +0.002 A 
ATOM     23  C   UNL     1     -25.845   0.033   9.782  1.00  0.00    +0.002 A 
ATOM     24  C   UNL     1     -24.737   0.134  10.619  1.00  0.00    +0.000 A 
ENDBRANCH  17  19
ENDBRANCH   1  10
TORSDOF 3
ENDMDL
MODEL 9
REMARK VINA RESULT:    -8.953      7.006      8.634
REMARK INTER + INTRA:         -10.635
REMARK INTER:                 -10.000
REMARK INTRA:                  -0.635
REMARK UNBOUND:                -0.112
REMARK SMILES Clc1ccc(Nc2ncnc3c2cnn3-c2ccccc2)cc1
REMARK SMILES IDX 6 1 5 3 2 4 3 5 23 6 4 7 22 8 1 9 7 10 12 11 8 12 13 13
REMARK SMILES IDX 11 14 9 15 14 16 15 17 10 18 16 19 17 20 21 21 18 22 20 23
REMARK SMILES IDX 19 24
REMARK H PARENT 6 2
ROOT
ATOM      1  N   UNL     1     -30.878   1.763  10.019  1.00  0.00    -0.340 N 
ATOM      2  H   UNL     1     -30.775   1.128   9.241  1.00  0.00    +0.168 HD
ENDROOT
BRANCH   1   3
ATOM      3  C   UNL     1     -30.164   1.372  11.167  1.00  0.00    +0.040 A 
ATOM      4  C   UNL     1     -28.859   0.527  13.522  1.00  0.00    +0.041 A 
ATOM      5  C   UNL     1     -28.154   1.217  12.543  1.00  0.00    +0.022 A 
ATOM      6  C   UNL     1     -30.209   0.252  13.342  1.00  0.00    +0.022 A 
ATOM      7  C   UNL     1     -28.806   1.635  11.375  1.00  0.00    +0.027 A 
ATOM      8  C   UNL     1     -30.853   0.673  12.174  1.00  0.00    +0.027 A 
ATOM      9 Cl   UNL     1     -28.060   0.014  14.956  1.00  0.00    -0.084 Cl
ENDBRANCH   1   3
BRANCH   1  10
ATOM     10  C   UNL     1     -31.702   2.864   9.741  1.00  0.00    +0.144 A 
ATOM     11  C   UNL     1     -33.079   2.833  10.026  1.00  0.00    +0.082 A 
ATOM     12  N   UNL     1     -31.218   4.003   9.188  1.00  0.00    -0.218 NA
ATOM     13  C   UNL     1     -33.995   1.920  10.574  1.00  0.00    +0.150 A 
ATOM     14  C   UNL     1     -33.843   3.954   9.729  1.00  0.00    +0.168 A 
ATOM     15  C   UNL     1     -32.052   5.028   8.943  1.00  0.00    +0.226 A 
ATOM     16  N   UNL     1     -35.237   2.392  10.631  1.00  0.00    -0.174 NA
ATOM     17  N   UNL     1     -35.154   3.656  10.107  1.00  0.00    -0.215 N 
ATOM     18  N   UNL     1     -33.368   5.089   9.179  1.00  0.00    -0.216 NA
BRANCH  17  19
ATOM     19  C   UNL     1     -36.333   4.459  10.019  1.00  0.00    +0.067 A 
ATOM     20  C   UNL     1     -37.428   4.090   9.229  1.00  0.00    +0.028 A 
ATOM     21  C   UNL     1     -36.398   5.661  10.748  1.00  0.00    +0.028 A 
ATOM     22  C   UNL     1     -38.564   4.905   9.171  1.00  0.00    +0.002 A 
ATOM     23  C   UNL     1     -37.534   6.470  10.687  1.00  0.00    +0.002 A 
ATOM     24  C   UNL     1     -38.617   6.092   9.898  1.00  0.00    +0.000 A 
ENDBRANCH  17  19
ENDBRANCH   1  10
TORSDOF 3
ENDMDL
