MODEL 1
REMARK VINA RESULT:    -9.867      0.000      0.000
REMARK INTER + INTRA:         -10.876
REMARK INTER:                 -10.732
REMARK INTRA:                  -0.144
REMARK UNBOUND:                -0.144
REMARK SMILES O=C(O)c1cc2ccccc2c2ccccc12
REMARK SMILES IDX 2 1 1 2 3 3 4 5 17 6 5 7 16 8 12 9 6 10 15 11 13 12 11 13
REMARK SMILES IDX 7 14 14 15 10 16 8 17 9 18
REMARK H PARENT 3 4
ROOT
ATOM      1  C   UNL     1     -31.045  10.128   7.160  1.00  0.00    +0.336 C 
ATOM      2  O   UNL     1     -31.573  10.723   8.078  1.00  0.00    -0.246 OA
ENDROOT
BRANCH   1   3
ATOM      3  O   UNL     1     -31.785   9.600   6.164  1.00  0.00    -0.478 OA
ATOM      4  H   UNL     1     -31.551  10.147   5.385  1.00  0.00    +0.297 HD
ENDBRANCH   1   3
BRANCH   1   5
ATOM      5  C   UNL     1     -29.594   9.863   6.961  1.00  0.00    +0.068 A 
ATOM      6  C   UNL     1     -28.738  10.796   6.325  1.00  0.00    -0.003 A 
ATOM      7  C   UNL     1     -29.109   8.626   7.403  1.00  0.00    +0.025 A 
ATOM      8  C   UNL     1     -29.177  12.070   5.878  1.00  0.00    +0.009 A 
ATOM      9  C   UNL     1     -27.368  10.447   6.142  1.00  0.00    -0.010 A 
ATOM     10  C   UNL     1     -27.772   8.270   7.234  1.00  0.00    -0.017 A 
ATOM     11  C   UNL     1     -28.323  12.978   5.256  1.00  0.00    +0.001 A 
ATOM     12  C   UNL     1     -26.533  11.401   5.503  1.00  0.00    +0.009 A 
ATOM     13  C   UNL     1     -26.879   9.168   6.600  1.00  0.00    -0.010 A 
ATOM     14  C   UNL     1     -27.330   7.018   7.695  1.00  0.00    +0.009 A 
ATOM     15  C   UNL     1     -26.997  12.641   5.067  1.00  0.00    +0.001 A 
ATOM     16  C   UNL     1     -25.537   8.725   6.467  1.00  0.00    +0.009 A 
ATOM     17  C   UNL     1     -26.005   6.621   7.544  1.00  0.00    +0.001 A 
ATOM     18  C   UNL     1     -25.106   7.476   6.929  1.00  0.00    +0.001 A 
ENDBRANCH   1   5
TORSDOF 2
ENDMDL
MODEL 2
REMARK VINA RESULT:    -9.612      2.441      3.687
REMARK INTER + INTRA:         -10.599
REMARK INTER:                 -10.460
REMARK INTRA:                  -0.139
REMARK UNBOUND:                -0.144
REMARK SMILES O=C(O)c1cc2ccccc2c2ccccc12
REMARK SMILES IDX 2 1 1 2 3 3 4 5 17 6 5 7 16 8 12 9 6 10 15 11 13 12 11 13
REMARK SMILES IDX 7 14 14 15 10 16 8 17 9 18
REMARK H PARENT 3 4
ROOT
ATOM      1  C   UNL     1     -26.083  11.484   4.989  1.00  0.00    +0.336 C 
ATOM      2  O   UNL     1     -26.137  11.679   3.791  1.00  0.00    -0.246 OA
ENDROOT
BRANCH   1   3
ATOM      3  O   UNL     1     -25.306  12.251   5.779  1.00  0.00    -0.478 OA
ATOM      4  H   UNL     1     -25.401  11.844   6.665  1.00  0.00    +0.297 HD
ENDBRANCH   1   3
BRANCH   1   5
ATOM      5  C   UNL     1     -26.790  10.434   5.773  1.00  0.00    +0.068 A 
ATOM      6  C   UNL     1     -28.122  10.601   6.225  1.00  0.00    -0.003 A 
ATOM      7  C   UNL     1     -26.066   9.274   6.079  1.00  0.00    +0.025 A 
ATOM      8  C   UNL     1     -28.904  11.747   5.924  1.00  0.00    +0.009 A 
ATOM      9  C   UNL     1     -28.712   9.562   7.001  1.00  0.00    -0.010 A 
ATOM     10  C   UNL     1     -26.629   8.248   6.835  1.00  0.00    -0.017 A 
ATOM     11  C   UNL     1     -30.214  11.897   6.373  1.00  0.00    +0.001 A 
ATOM     12  C   UNL     1     -30.049   9.754   7.440  1.00  0.00    +0.009 A 
ATOM     13  C   UNL     1     -27.956   8.371   7.312  1.00  0.00    -0.010 A 
ATOM     14  C   UNL     1     -25.864   7.103   7.116  1.00  0.00    +0.009 A 
ATOM     15  C   UNL     1     -30.787  10.898   7.135  1.00  0.00    +0.001 A 
ATOM     16  C   UNL     1     -28.450   7.281   8.076  1.00  0.00    +0.009 A 
ATOM     17  C   UNL     1     -26.385   6.056   7.870  1.00  0.00    +0.001 A 
ATOM     18  C   UNL     1     -27.681   6.145   8.351  1.00  0.00    +0.001 A 
ENDBRANCH   1   5
TORSDOF 2
ENDMDL
MODEL 3
REMARK VINA RESULT:    -9.534      2.475      4.242
REMARK INTER + INTRA:         -10.514
REMARK INTER:                 -10.383
REMARK INTRA:                  -0.130
REMARK UNBOUND:                -0.144
REMARK SMILES O=C(O)c1cc2ccccc2c2ccccc12
REMARK SMILES IDX 2 1 1 2 3 3 4 5 17 6 5 7 16 8 12 9 6 10 15 11 13 12 11 13
REMARK SMILES IDX 7 14 14 15 10 16 8 17 9 18
REMARK H PARENT 3 4
ROOT
ATOM      1  C   UNL     1     -25.727   8.863   6.418  1.00  0.00    +0.336 C 
ATOM      2  O   UNL     1     -25.106   8.486   5.444  1.00  0.00    -0.246 OA
ENDROOT
BRANCH   1   3
ATOM      3  O   UNL     1     -25.138   8.929   7.628  1.00  0.00    -0.478 OA
ATOM      4  H   UNL     1     -24.185   9.024   7.420  1.00  0.00    +0.297 HD
ENDBRANCH   1   3
BRANCH   1   5
ATOM      5  C   UNL     1     -27.154   9.282   6.482  1.00  0.00    +0.068 A 
ATOM      6  C   UNL     1     -27.575  10.580   6.099  1.00  0.00    -0.003 A 
ATOM      7  C   UNL     1     -28.070   8.343   6.972  1.00  0.00    +0.025 A 
ATOM      8  C   UNL     1     -26.690  11.559   5.578  1.00  0.00    +0.009 A 
ATOM      9  C   UNL     1     -28.956  10.911   6.226  1.00  0.00    -0.010 A 
ATOM     10  C   UNL     1     -29.423   8.651   7.100  1.00  0.00    -0.017 A 
ATOM     11  C   UNL     1     -27.119  12.830   5.204  1.00  0.00    +0.001 A 
ATOM     12  C   UNL     1     -29.351  12.218   5.835  1.00  0.00    +0.009 A 
ATOM     13  C   UNL     1     -29.891   9.936   6.734  1.00  0.00    -0.010 A 
ATOM     14  C   UNL     1     -30.305   7.676   7.596  1.00  0.00    +0.009 A 
ATOM     15  C   UNL     1     -28.454  13.161   5.334  1.00  0.00    +0.001 A 
ATOM     16  C   UNL     1     -31.283  10.165   6.900  1.00  0.00    +0.009 A 
ATOM     17  C   UNL     1     -31.663   7.941   7.744  1.00  0.00    +0.001 A 
ATOM     18  C   UNL     1     -32.153   9.188   7.395  1.00  0.00    +0.001 A 
ENDBRANCH   1   5
TORSDOF 2
ENDMDL
MODEL 4
REMARK VINA RESULT:    -9.120      2.245      4.967
REMARK INTER + INTRA:         -10.064
REMARK INTER:                 -10.327
REMARK INTRA:                   0.263
REMARK UNBOUND:                -0.144
REMARK SMILES O=C(O)c1cc2ccccc2c2ccccc12
REMARK SMILES IDX 2 1 1 2 3 3 4 5 17 6 5 7 16 8 12 9 6 10 15 11 13 12 11 13
REMARK SMILES IDX 7 14 14 15 10 16 8 17 9 18
REMARK H PARENT 3 4
ROOT
ATOM      1  C   UNL     1     -27.152   7.016   7.599  1.00  0.00    +0.336 C 
ATOM      2  O   UNL     1     -26.405   6.313   6.948  1.00  0.00    -0.246 OA
ENDROOT
BRANCH   1   3
ATOM      3  O   UNL     1     -27.505   6.672   8.853  1.00  0.00    -0.478 OA
ATOM      4  H   UNL     1     -28.452   6.430   8.771  1.00  0.00    +0.297 HD
ENDBRANCH   1   3
BRANCH   1   5
ATOM      5  C   UNL     1     -27.795   8.292   7.182  1.00  0.00    +0.068 A 
ATOM      6  C   UNL     1     -29.197   8.485   7.248  1.00  0.00    -0.003 A 
ATOM      7  C   UNL     1     -26.954   9.295   6.684  1.00  0.00    +0.025 A 
ATOM      8  C   UNL     1     -30.090   7.509   7.763  1.00  0.00    +0.009 A 
ATOM      9  C   UNL     1     -29.735   9.725   6.794  1.00  0.00    -0.010 A 
ATOM     10  C   UNL     1     -27.463  10.513   6.239  1.00  0.00    -0.017 A 
ATOM     11  C   UNL     1     -31.466   7.713   7.824  1.00  0.00    +0.001 A 
ATOM     12  C   UNL     1     -31.143   9.892   6.873  1.00  0.00    +0.009 A 
ATOM     13  C   UNL     1     -28.859  10.750   6.282  1.00  0.00    -0.010 A 
ATOM     14  C   UNL     1     -26.580  11.490   5.749  1.00  0.00    +0.009 A 
ATOM     15  C   UNL     1     -31.995   8.908   7.376  1.00  0.00    +0.001 A 
ATOM     16  C   UNL     1     -29.292  12.016   5.806  1.00  0.00    +0.009 A 
ATOM     17  C   UNL     1     -27.046  12.718   5.290  1.00  0.00    +0.001 A 
ATOM     18  C   UNL     1     -28.405  12.982   5.319  1.00  0.00    +0.001 A 
ENDBRANCH   1   5
TORSDOF 2
ENDMDL
MODEL 5
REMARK VINA RESULT:    -7.988      3.379      5.291
REMARK INTER + INTRA:          -8.832
REMARK INTER:                  -8.795
REMARK INTRA:                  -0.038
REMARK UNBOUND:                -0.144
REMARK SMILES O=C(O)c1cc2ccccc2c2ccccc12
REMARK SMILES IDX 2 1 1 2 3 3 4 5 17 6 5 7 16 8 12 9 6 10 15 11 13 12 11 13
REMARK SMILES IDX 7 14 14 15 10 16 8 17 9 18
REMARK H PARENT 3 4
ROOT
ATOM      1  C   UNL     1     -26.365   4.835   8.962  1.00  0.00    +0.336 C 
ATOM      2  O   UNL     1     -25.701   3.992   8.393  1.00  0.00    -0.246 OA
ENDROOT
BRANCH   1   3
ATOM      3  O   UNL     1     -26.507   4.813  10.301  1.00  0.00    -0.478 OA
ATOM      4  H   UNL     1     -27.478   4.835  10.434  1.00  0.00    +0.297 HD
ENDBRANCH   1   3
BRANCH   1   5
ATOM      5  C   UNL     1     -27.114   5.968   8.352  1.00  0.00    +0.068 A 
ATOM      6  C   UNL     1     -26.460   7.020   7.665  1.00  0.00    -0.003 A 
ATOM      7  C   UNL     1     -28.505   5.970   8.515  1.00  0.00    +0.025 A 
ATOM      8  C   UNL     1     -25.057   7.054   7.456  1.00  0.00    +0.009 A 
ATOM      9  C   UNL     1     -27.250   8.086   7.143  1.00  0.00    -0.010 A 
ATOM     10  C   UNL     1     -29.292   7.003   8.009  1.00  0.00    -0.017 A 
ATOM     11  C   UNL     1     -24.427   8.095   6.777  1.00  0.00    +0.001 A 
ATOM     12  C   UNL     1     -26.569   9.127   6.459  1.00  0.00    +0.009 A 
ATOM     13  C   UNL     1     -28.683   8.078   7.319  1.00  0.00    -0.010 A 
ATOM     14  C   UNL     1     -30.684   6.961   8.196  1.00  0.00    +0.009 A 
ATOM     15  C   UNL     1     -25.186   9.135   6.278  1.00  0.00    +0.001 A 
ATOM     16  C   UNL     1     -29.558   9.089   6.839  1.00  0.00    +0.009 A 
ATOM     17  C   UNL     1     -31.507   7.972   7.711  1.00  0.00    +0.001 A 
ATOM     18  C   UNL     1     -30.943   9.039   7.031  1.00  0.00    +0.001 A 
ENDBRANCH   1   5
TORSDOF 2
ENDMDL
MODEL 6
REMARK VINA RESULT:    -7.825      7.459      9.538
REMARK INTER + INTRA:          -8.655
REMARK INTER:                  -8.668
REMARK INTRA:                   0.013
REMARK UNBOUND:                -0.144
REMARK SMILES O=C(O)c1cc2ccccc2c2ccccc12
REMARK SMILES IDX 2 1 1 2 3 3 4 5 17 6 5 7 16 8 12 9 6 10 15 11 13 12 11 13
REMARK SMILES IDX 7 14 14 15 10 16 8 17 9 18
REMARK H PARENT 3 4
ROOT
ATOM      1  C   UNL     1     -34.450   6.463   7.231  1.00  0.00    +0.336 C 
ATOM      2  O   UNL     1     -34.447   6.256   6.034  1.00  0.00    -0.246 OA
ENDROOT
BRANCH   1   3
ATOM      3  O   UNL     1     -34.388   7.719   7.715  1.00  0.00    -0.478 OA
ATOM      4  H   UNL     1     -34.988   8.225   7.128  1.00  0.00    +0.297 HD
ENDBRANCH   1   3
BRANCH   1   5
ATOM      5  C   UNL     1     -34.503   5.458   8.328  1.00  0.00    +0.068 A 
ATOM      6  C   UNL     1     -35.629   5.331   9.180  1.00  0.00    -0.003 A 
ATOM      7  C   UNL     1     -33.370   4.656   8.510  1.00  0.00    +0.025 A 
ATOM      8  C   UNL     1     -36.808   6.106   9.024  1.00  0.00    +0.009 A 
ATOM      9  C   UNL     1     -35.582   4.368  10.230  1.00  0.00    -0.010 A 
ATOM     10  C   UNL     1     -33.309   3.708   9.530  1.00  0.00    -0.017 A 
ATOM     11  C   UNL     1     -37.908   5.968   9.867  1.00  0.00    +0.001 A 
ATOM     12  C   UNL     1     -36.724   4.261  11.067  1.00  0.00    +0.009 A 
ATOM     13  C   UNL     1     -34.408   3.548  10.408  1.00  0.00    -0.010 A 
ATOM     14  C   UNL     1     -32.151   2.925   9.673  1.00  0.00    +0.009 A 
ATOM     15  C   UNL     1     -37.865   5.044  10.893  1.00  0.00    +0.001 A 
ATOM     16  C   UNL     1     -34.261   2.562  11.420  1.00  0.00    +0.009 A 
ATOM     17  C   UNL     1     -32.046   1.970  10.679  1.00  0.00    +0.001 A 
ATOM     18  C   UNL     1     -33.104   1.788  11.555  1.00  0.00    +0.001 A 
ENDBRANCH   1   5
TORSDOF 2
ENDMDL
MODEL 7
REMARK VINA RESULT:    -7.646      7.992     10.436
REMARK INTER + INTRA:          -8.460
REMARK INTER:                  -8.325
REMARK INTRA:                  -0.135
REMARK UNBOUND:                -0.144
REMARK SMILES O=C(O)c1cc2ccccc2c2ccccc12
REMARK SMILES IDX 2 1 1 2 3 3 4 5 17 6 5 7 16 8 12 9 6 10 15 11 13 12 11 13
REMARK SMILES IDX 7 14 14 15 10 16 8 17 9 18
REMARK H PARENT 3 4
ROOT
ATOM      1  C   UNL     1     -30.753   0.311   9.938  1.00  0.00    +0.336 C 
ATOM      2  O   UNL     1     -30.802  -0.862   9.627  1.00  0.00    -0.246 OA
ENDROOT
BRANCH   1   3
ATOM      3  O   UNL     1     -31.721   1.167   9.555  1.00  0.00    -0.478 OA
ATOM      4  H   UNL     1     -32.160   0.705   8.811  1.00  0.00    +0.297 HD
ENDBRANCH   1   3
BRANCH   1   5
ATOM      5  C   UNL     1     -29.696   1.001  10.727  1.00  0.00    +0.068 A 
ATOM      6  C   UNL     1     -29.674   0.972  12.144  1.00  0.00    -0.003 A 
ATOM      7  C   UNL     1     -28.731   1.718  10.007  1.00  0.00    +0.025 A 
ATOM      8  C   UNL     1     -30.616   0.245  12.918  1.00  0.00    +0.009 A 
ATOM      9  C   UNL     1     -28.647   1.690  12.823  1.00  0.00    -0.010 A 
ATOM     10  C   UNL     1     -27.720   2.423  10.656  1.00  0.00    -0.017 A 
ATOM     11  C   UNL     1     -30.580   0.223  14.310  1.00  0.00    +0.001 A 
ATOM     12  C   UNL     1     -28.648   1.643  14.242  1.00  0.00    +0.009 A 
ATOM     13  C   UNL     1     -27.659   2.426  12.071  1.00  0.00    -0.010 A 
ATOM     14  C   UNL     1     -26.774   3.126   9.891  1.00  0.00    +0.009 A 
ATOM     15  C   UNL     1     -29.594   0.926  14.974  1.00  0.00    +0.001 A 
ATOM     16  C   UNL     1     -26.599   3.173  12.649  1.00  0.00    +0.009 A 
ATOM     17  C   UNL     1     -25.749   3.847  10.497  1.00  0.00    +0.001 A 
ATOM     18  C   UNL     1     -25.661   3.870  11.879  1.00  0.00    +0.001 A 
ENDBRANCH   1   5
TORSDOF 2
ENDMDL
MODEL 8
REMARK VINA RESULT:    -7.567      7.435     10.328
REMARK INTER + INTRA:          -8.374
REMARK INTER:                  -8.232
REMARK INTRA:                  -0.142
REMARK UNBOUND:                -0.144
REMARK SMILES O=C(O)c1cc2ccccc2c2ccccc12
REMARK SMILES IDX 2 1 1 2 3 3 4 5 17 6 5 7 16 8 12 9 6 10 15 11 13 12 11 13
REMARK SMILES IDX 7 14 14 15 10 16 8 17 9 18
REMARK H PARENT 3 4
ROOT
ATOM      1  C   UNL     1     -33.394   6.155   7.439  1.00  0.00    +0.336 C 
ATOM      2  O   UNL     1     -33.172   5.834   6.289  1.00  0.00    -0.246 OA
ENDROOT
BRANCH   1   3
ATOM      3  O   UNL     1     -32.763   7.208   7.995  1.00  0.00    -0.478 OA
ATOM      4  H   UNL     1     -31.928   6.824   8.339  1.00  0.00    +0.297 HD
ENDBRANCH   1   3
BRANCH   1   5
ATOM      5  C   UNL     1     -34.321   5.503   8.404  1.00  0.00    +0.068 A 
ATOM      6  C   UNL     1     -33.913   4.425   9.228  1.00  0.00    -0.003 A 
ATOM      7  C   UNL     1     -35.637   5.980   8.443  1.00  0.00    +0.025 A 
ATOM      8  C   UNL     1     -32.587   3.919   9.241  1.00  0.00    +0.009 A 
ATOM      9  C   UNL     1     -34.874   3.833  10.099  1.00  0.00    -0.010 A 
ATOM     10  C   UNL     1     -36.588   5.414   9.290  1.00  0.00    -0.017 A 
ATOM     11  C   UNL     1     -32.199   2.860  10.059  1.00  0.00    +0.001 A 
ATOM     12  C   UNL     1     -34.438   2.755  10.915  1.00  0.00    +0.009 A 
ATOM     13  C   UNL     1     -36.228   4.332  10.129  1.00  0.00    -0.010 A 
ATOM     14  C   UNL     1     -37.896   5.927   9.294  1.00  0.00    +0.009 A 
ATOM     15  C   UNL     1     -33.129   2.275  10.897  1.00  0.00    +0.001 A 
ATOM     16  C   UNL     1     -37.259   3.814  10.958  1.00  0.00    +0.009 A 
ATOM     17  C   UNL     1     -38.878   5.390  10.121  1.00  0.00    +0.001 A 
ATOM     18  C   UNL     1     -38.559   4.332  10.955  1.00  0.00    +0.001 A 
ENDBRANCH   1   5
TORSDOF 2
ENDMDL
MODEL 9
REMARK VINA RESULT:    -7.531      9.020     11.263
REMARK INTER + INTRA:          -8.335
REMARK INTER:                  -8.201
REMARK INTRA:                  -0.134
REMARK UNBOUND:                -0.144
REMARK SMILES O=C(O)c1cc2ccccc2c2ccccc12
REMARK SMILES IDX 2 1 1 2 3 3 4 5 17 6 5 7 16 8 12 9 6 10 15 11 13 12 11 13
REMARK SMILES IDX 7 14 14 15 10 16 8 17 9 18
REMARK H PARENT 3 4
ROOT
ATOM      1  C   UNL     1     -25.083  -0.956  10.012  1.00  0.00    +0.336 C 
ATOM      2  O   UNL     1     -23.962  -1.369  10.227  1.00  0.00    -0.246 OA
ENDROOT
BRANCH   1   3
ATOM      3  O   UNL     1     -25.678  -1.165   8.821  1.00  0.00    -0.478 OA
ATOM      4  H   UNL     1     -26.568  -1.499   9.060  1.00  0.00    +0.297 HD
ENDBRANCH   1   3
BRANCH   1   5
ATOM      5  C   UNL     1     -25.962  -0.182  10.931  1.00  0.00    +0.068 A 
ATOM      6  C   UNL     1     -25.796   1.210  11.138  1.00  0.00    -0.003 A 
ATOM      7  C   UNL     1     -26.950  -0.899  11.618  1.00  0.00    +0.025 A 
ATOM      8  C   UNL     1     -24.824   1.983  10.451  1.00  0.00    +0.009 A 
ATOM      9  C   UNL     1     -26.657   1.867  12.064  1.00  0.00    -0.010 A 
ATOM     10  C   UNL     1     -27.802  -0.271  12.525  1.00  0.00    -0.017 A 
ATOM     11  C   UNL     1     -24.674   3.352  10.663  1.00  0.00    +0.001 A 
ATOM     12  C   UNL     1     -26.470   3.262  12.251  1.00  0.00    +0.009 A 
ATOM     13  C   UNL     1     -27.671   1.118  12.767  1.00  0.00    -0.010 A 
ATOM     14  C   UNL     1     -28.779  -1.031  13.189  1.00  0.00    +0.009 A 
ATOM     15  C   UNL     1     -25.498   3.993  11.567  1.00  0.00    +0.001 A 
ATOM     16  C   UNL     1     -28.577   1.676  13.708  1.00  0.00    +0.009 A 
ATOM     17  C   UNL     1     -29.647  -0.445  14.105  1.00  0.00    +0.001 A 
ATOM     18  C   UNL     1     -29.547   0.911  14.365  1.00  0.00    +0.001 A 
ENDBRANCH   1   5
TORSDOF 2
ENDMDL
