MODEL 1
REMARK VINA RESULT:    -8.847      0.000      0.000
REMARK INTER + INTRA:         -10.990
REMARK INTER:                 -10.657
REMARK INTRA:                  -0.333
REMARK UNBOUND:                -0.333
REMARK SMILES O=[N+]([O-])c1cccc(C=Nc2ccccc2O)c1
REMARK SMILES IDX 10 1 9 2 11 3 16 4 15 5 12 6 14 7 13 8 17 9 8 11 18 12 7 13
REMARK SMILES IDX 4 14 6 15 5 16 2 17 1 18 3 19
REMARK H PARENT 17 10
ROOT
ATOM      1  N   UNL     1     -26.299   4.470   9.444  1.00  0.00    -0.252 NA
ATOM      2  C   UNL     1     -25.838   5.176   8.463  1.00  0.00    +0.120 C 
ENDROOT
BRANCH   1   3
ATOM      3  C   UNL     1     -25.505   3.390   9.878  1.00  0.00    +0.105 A 
ATOM      4  C   UNL     1     -25.699   2.061   9.459  1.00  0.00    +0.141 A 
ATOM      5  C   UNL     1     -24.857   1.038   9.898  1.00  0.00    +0.048 A 
ATOM      6  C   UNL     1     -24.429   3.668  10.727  1.00  0.00    +0.032 A 
ATOM      7  C   UNL     1     -23.798   1.335  10.757  1.00  0.00    +0.004 A 
ATOM      8  C   UNL     1     -23.583   2.650  11.170  1.00  0.00    +0.003 A 
BRANCH   4   9
ATOM      9  O   UNL     1     -26.736   1.765   8.610  1.00  0.00    -0.506 OA
ATOM     10  H   UNL     1     -26.708   2.383   7.864  1.00  0.00    +0.293 HD
ENDBRANCH   4   9
ENDBRANCH   1   3
BRANCH   2  11
ATOM     11  C   UNL     1     -26.571   6.344   7.937  1.00  0.00    -0.000 A 
ATOM     12  C   UNL     1     -25.933   7.185   7.022  1.00  0.00    +0.095 A 
ATOM     13  C   UNL     1     -27.883   6.609   8.349  1.00  0.00    +0.010 A 
ATOM     14  C   UNL     1     -26.627   8.295   6.523  1.00  0.00    +0.270 A 
ATOM     15  C   UNL     1     -28.567   7.718   7.846  1.00  0.00    +0.008 A 
ATOM     16  C   UNL     1     -27.941   8.566   6.931  1.00  0.00    +0.085 A 
BRANCH  14  17
ATOM     17  N   UNL     1     -25.968   9.188   5.561  1.00  0.00    +0.062 N 
ATOM     18  O   UNL     1     -26.446   9.263   4.420  1.00  0.00    -0.258 OA
ATOM     19  O   UNL     1     -24.970   9.814   5.948  1.00  0.00    -0.258 OA
ENDBRANCH  14  17
ENDBRANCH   2  11
TORSDOF 4
ENDMDL
MODEL 2
REMARK VINA RESULT:    -8.723      2.631      4.051
REMARK INTER + INTRA:         -10.841
REMARK INTER:                 -10.443
REMARK INTRA:                  -0.398
REMARK UNBOUND:                -0.333
REMARK SMILES O=[N+]([O-])c1cccc(C=Nc2ccccc2O)c1
REMARK SMILES IDX 10 1 9 2 11 3 16 4 15 5 12 6 14 7 13 8 17 9 8 11 18 12 7 13
REMARK SMILES IDX 4 14 6 15 5 16 2 17 1 18 3 19
REMARK H PARENT 17 10
ROOT
ATOM      1  N   UNL     1     -26.939   7.759   7.481  1.00  0.00    -0.252 NA
ATOM      2  C   UNL     1     -28.158   8.173   7.614  1.00  0.00    +0.120 C 
ENDROOT
BRANCH   1   3
ATOM      3  C   UNL     1     -26.634   6.498   8.031  1.00  0.00    +0.105 A 
ATOM      4  C   UNL     1     -25.342   6.116   8.438  1.00  0.00    +0.141 A 
ATOM      5  C   UNL     1     -25.109   4.864   9.008  1.00  0.00    +0.048 A 
ATOM      6  C   UNL     1     -27.687   5.601   8.235  1.00  0.00    +0.032 A 
ATOM      7  C   UNL     1     -26.171   3.977   9.189  1.00  0.00    +0.004 A 
ATOM      8  C   UNL     1     -27.460   4.346   8.805  1.00  0.00    +0.003 A 
BRANCH   4   9
ATOM      9  O   UNL     1     -24.295   6.986   8.267  1.00  0.00    -0.506 OA
ATOM     10  H   UNL     1     -23.596   6.531   7.773  1.00  0.00    +0.293 HD
ENDBRANCH   4   9
ENDBRANCH   1   3
BRANCH   2  11
ATOM     11  C   UNL     1     -28.601   9.467   7.060  1.00  0.00    -0.000 A 
ATOM     12  C   UNL     1     -27.698  10.225   6.312  1.00  0.00    +0.095 A 
ATOM     13  C   UNL     1     -29.904   9.931   7.282  1.00  0.00    +0.010 A 
ATOM     14  C   UNL     1     -28.116  11.456   5.787  1.00  0.00    +0.270 A 
ATOM     15  C   UNL     1     -30.311  11.159   6.755  1.00  0.00    +0.008 A 
ATOM     16  C   UNL     1     -29.419  11.926   6.005  1.00  0.00    +0.085 A 
BRANCH  14  17
ATOM     17  N   UNL     1     -27.176  12.264   4.999  1.00  0.00    +0.062 N 
ATOM     18  O   UNL     1     -26.121  11.729   4.631  1.00  0.00    -0.258 OA
ATOM     19  O   UNL     1     -27.495  13.435   4.749  1.00  0.00    -0.258 OA
ENDBRANCH  14  17
ENDBRANCH   2  11
TORSDOF 4
ENDMDL
MODEL 3
REMARK VINA RESULT:    -8.545      5.734      6.560
REMARK INTER + INTRA:         -10.627
REMARK INTER:                 -10.264
REMARK INTRA:                  -0.362
REMARK UNBOUND:                -0.333
REMARK SMILES O=[N+]([O-])c1cccc(C=Nc2ccccc2O)c1
REMARK SMILES IDX 10 1 9 2 11 3 16 4 15 5 12 6 14 7 13 8 17 9 8 11 18 12 7 13
REMARK SMILES IDX 4 14 6 15 5 16 2 17 1 18 3 19
REMARK H PARENT 17 10
ROOT
ATOM      1  N   UNL     1     -31.700   8.049   7.049  1.00  0.00    -0.252 NA
ATOM      2  C   UNL     1     -30.452   8.239   7.331  1.00  0.00    +0.120 C 
ENDROOT
BRANCH   1   3
ATOM      3  C   UNL     1     -32.309   6.906   7.606  1.00  0.00    +0.105 A 
ATOM      4  C   UNL     1     -33.549   6.397   7.178  1.00  0.00    +0.141 A 
ATOM      5  C   UNL     1     -34.086   5.240   7.747  1.00  0.00    +0.048 A 
ATOM      6  C   UNL     1     -31.613   6.212   8.600  1.00  0.00    +0.032 A 
ATOM      7  C   UNL     1     -33.381   4.571   8.748  1.00  0.00    +0.004 A 
ATOM      8  C   UNL     1     -32.144   5.055   9.172  1.00  0.00    +0.003 A 
BRANCH   4   9
ATOM      9  O   UNL     1     -34.244   7.049   6.191  1.00  0.00    -0.506 OA
ATOM     10  H   UNL     1     -33.636   7.233   5.458  1.00  0.00    +0.293 HD
ENDBRANCH   4   9
ENDBRANCH   1   3
BRANCH   2  11
ATOM     11  C   UNL     1     -29.713   9.412   6.823  1.00  0.00    -0.000 A 
ATOM     12  C   UNL     1     -28.418   9.232   6.334  1.00  0.00    +0.095 A 
ATOM     13  C   UNL     1     -30.298  10.684   6.834  1.00  0.00    +0.010 A 
ATOM     14  C   UNL     1     -27.713  10.345   5.853  1.00  0.00    +0.270 A 
ATOM     15  C   UNL     1     -29.589  11.787   6.352  1.00  0.00    +0.008 A 
ATOM     16  C   UNL     1     -28.293  11.622   5.859  1.00  0.00    +0.085 A 
BRANCH  14  17
ATOM     17  N   UNL     1     -26.350  10.170   5.336  1.00  0.00    +0.062 N 
ATOM     18  O   UNL     1     -26.084   9.111   4.752  1.00  0.00    -0.258 OA
ATOM     19  O   UNL     1     -25.545  11.096   5.516  1.00  0.00    -0.258 OA
ENDBRANCH  14  17
ENDBRANCH   2  11
TORSDOF 4
ENDMDL
MODEL 4
REMARK VINA RESULT:    -7.997      7.046      9.483
REMARK INTER + INTRA:          -9.966
REMARK INTER:                  -9.649
REMARK INTRA:                  -0.317
REMARK UNBOUND:                -0.333
REMARK SMILES O=[N+]([O-])c1cccc(C=Nc2ccccc2O)c1
REMARK SMILES IDX 10 1 9 2 11 3 16 4 15 5 12 6 14 7 13 8 17 9 8 11 18 12 7 13
REMARK SMILES IDX 4 14 6 15 5 16 2 17 1 18 3 19
REMARK H PARENT 17 10
ROOT
ATOM      1  N   UNL     1     -31.764   8.000   7.525  1.00  0.00    -0.252 NA
ATOM      2  C   UNL     1     -32.485   7.615   6.522  1.00  0.00    +0.120 C 
ENDROOT
BRANCH   1   3
ATOM      3  C   UNL     1     -31.094   9.232   7.388  1.00  0.00    +0.105 A 
ATOM      4  C   UNL     1     -31.650  10.469   7.764  1.00  0.00    +0.141 A 
ATOM      5  C   UNL     1     -30.923  11.653   7.635  1.00  0.00    +0.048 A 
ATOM      6  C   UNL     1     -29.783   9.214   6.903  1.00  0.00    +0.032 A 
ATOM      7  C   UNL     1     -29.621  11.614   7.135  1.00  0.00    +0.004 A 
ATOM      8  C   UNL     1     -29.050  10.395   6.772  1.00  0.00    +0.003 A 
BRANCH   4   9
ATOM      9  O   UNL     1     -32.928  10.512   8.261  1.00  0.00    -0.506 OA
ATOM     10  H   UNL     1     -33.358   9.662   8.078  1.00  0.00    +0.293 HD
ENDBRANCH   4   9
ENDBRANCH   1   3
BRANCH   2  11
ATOM     11  C   UNL     1     -33.250   6.352   6.557  1.00  0.00    -0.000 A 
ATOM     12  C   UNL     1     -33.622   5.824   7.795  1.00  0.00    +0.095 A 
ATOM     13  C   UNL     1     -33.595   5.693   5.371  1.00  0.00    +0.010 A 
ATOM     14  C   UNL     1     -34.346   4.625   7.831  1.00  0.00    +0.270 A 
ATOM     15  C   UNL     1     -34.317   4.498   5.417  1.00  0.00    +0.008 A 
ATOM     16  C   UNL     1     -34.696   3.959   6.647  1.00  0.00    +0.085 A 
BRANCH  14  17
ATOM     17  N   UNL     1     -34.743   4.057   9.126  1.00  0.00    +0.062 N 
ATOM     18  O   UNL     1     -35.924   4.188   9.477  1.00  0.00    -0.258 OA
ATOM     19  O   UNL     1     -33.870   3.481   9.793  1.00  0.00    -0.258 OA
ENDBRANCH  14  17
ENDBRANCH   2  11
TORSDOF 4
ENDMDL
MODEL 5
REMARK VINA RESULT:    -7.946      5.447      8.700
REMARK INTER + INTRA:          -9.904
REMARK INTER:                  -9.539
REMARK INTRA:                  -0.366
REMARK UNBOUND:                -0.333
REMARK SMILES O=[N+]([O-])c1cccc(C=Nc2ccccc2O)c1
REMARK SMILES IDX 10 1 9 2 11 3 16 4 15 5 12 6 14 7 13 8 17 9 8 11 18 12 7 13
REMARK SMILES IDX 4 14 6 15 5 16 2 17 1 18 3 19
REMARK H PARENT 17 10
ROOT
ATOM      1  N   UNL     1     -29.803   8.420   7.357  1.00  0.00    -0.252 NA
ATOM      2  C   UNL     1     -31.084   8.237   7.339  1.00  0.00    +0.120 C 
ENDROOT
BRANCH   1   3
ATOM      3  C   UNL     1     -29.328   9.631   6.817  1.00  0.00    +0.105 A 
ATOM      4  C   UNL     1     -28.037   9.792   6.279  1.00  0.00    +0.141 A 
ATOM      5  C   UNL     1     -27.636  11.010   5.727  1.00  0.00    +0.048 A 
ATOM      6  C   UNL     1     -30.210  10.715   6.761  1.00  0.00    +0.032 A 
ATOM      7  C   UNL     1     -28.527  12.083   5.695  1.00  0.00    +0.004 A 
ATOM      8  C   UNL     1     -29.814  11.935   6.210  1.00  0.00    +0.003 A 
BRANCH   4   9
ATOM      9  O   UNL     1     -27.159   8.739   6.303  1.00  0.00    -0.506 OA
ATOM     10  H   UNL     1     -26.840   8.584   5.401  1.00  0.00    +0.293 HD
ENDBRANCH   4   9
ENDBRANCH   1   3
BRANCH   2  11
ATOM     11  C   UNL     1     -31.701   7.017   7.896  1.00  0.00    -0.000 A 
ATOM     12  C   UNL     1     -33.058   6.783   7.668  1.00  0.00    +0.095 A 
ATOM     13  C   UNL     1     -30.939   6.109   8.643  1.00  0.00    +0.010 A 
ATOM     14  C   UNL     1     -33.646   5.626   8.198  1.00  0.00    +0.270 A 
ATOM     15  C   UNL     1     -31.533   4.959   9.167  1.00  0.00    +0.008 A 
ATOM     16  C   UNL     1     -32.889   4.712   8.946  1.00  0.00    +0.085 A 
BRANCH  14  17
ATOM     17  N   UNL     1     -35.073   5.368   7.967  1.00  0.00    +0.062 N 
ATOM     18  O   UNL     1     -35.399   4.244   7.561  1.00  0.00    -0.258 OA
ATOM     19  O   UNL     1     -35.868   6.292   8.191  1.00  0.00    -0.258 OA
ENDBRANCH  14  17
ENDBRANCH   2  11
TORSDOF 4
ENDMDL
MODEL 6
REMARK VINA RESULT:    -7.698      1.819      2.246
REMARK INTER + INTRA:          -9.605
REMARK INTER:                  -9.225
REMARK INTRA:                  -0.381
REMARK UNBOUND:                -0.333
REMARK SMILES O=[N+]([O-])c1cccc(C=Nc2ccccc2O)c1
REMARK SMILES IDX 10 1 9 2 11 3 16 4 15 5 12 6 14 7 13 8 17 9 8 11 18 12 7 13
REMARK SMILES IDX 4 14 6 15 5 16 2 17 1 18 3 19
REMARK H PARENT 17 10
ROOT
ATOM      1  N   UNL     1     -26.049   4.823   9.244  1.00  0.00    -0.252 NA
ATOM      2  C   UNL     1     -25.397   5.379   8.274  1.00  0.00    +0.120 C 
ENDROOT
BRANCH   1   3
ATOM      3  C   UNL     1     -25.489   3.654   9.797  1.00  0.00    +0.105 A 
ATOM      4  C   UNL     1     -25.994   2.362   9.564  1.00  0.00    +0.141 A 
ATOM      5  C   UNL     1     -25.375   1.238  10.113  1.00  0.00    +0.048 A 
ATOM      6  C   UNL     1     -24.334   3.786  10.574  1.00  0.00    +0.032 A 
ATOM      7  C   UNL     1     -24.232   1.392  10.898  1.00  0.00    +0.004 A 
ATOM      8  C   UNL     1     -23.710   2.665  11.126  1.00  0.00    +0.003 A 
BRANCH   4   9
ATOM      9  O   UNL     1     -27.116   2.204   8.789  1.00  0.00    -0.506 OA
ATOM     10  H   UNL     1     -27.645   3.015   8.845  1.00  0.00    +0.293 HD
ENDBRANCH   4   9
ENDBRANCH   1   3
BRANCH   2  11
ATOM     11  C   UNL     1     -25.874   6.619   7.631  1.00  0.00    -0.000 A 
ATOM     12  C   UNL     1     -27.224   6.959   7.740  1.00  0.00    +0.095 A 
ATOM     13  C   UNL     1     -24.990   7.441   6.920  1.00  0.00    +0.010 A 
ATOM     14  C   UNL     1     -27.679   8.135   7.128  1.00  0.00    +0.270 A 
ATOM     15  C   UNL     1     -25.453   8.611   6.314  1.00  0.00    +0.008 A 
ATOM     16  C   UNL     1     -26.799   8.963   6.415  1.00  0.00    +0.085 A 
BRANCH  14  17
ATOM     17  N   UNL     1     -29.096   8.504   7.233  1.00  0.00    +0.062 N 
ATOM     18  O   UNL     1     -29.875   7.675   7.725  1.00  0.00    -0.258 OA
ATOM     19  O   UNL     1     -29.430   9.625   6.822  1.00  0.00    -0.258 OA
ENDBRANCH  14  17
ENDBRANCH   2  11
TORSDOF 4
ENDMDL
MODEL 7
REMARK VINA RESULT:    -7.521      5.986      8.438
REMARK INTER + INTRA:          -9.392
REMARK INTER:                  -9.005
REMARK INTRA:                  -0.387
REMARK UNBOUND:                -0.333
REMARK SMILES O=[N+]([O-])c1cccc(C=Nc2ccccc2O)c1
REMARK SMILES IDX 10 1 9 2 11 3 16 4 15 5 12 6 14 7 13 8 17 9 8 11 18 12 7 13
REMARK SMILES IDX 4 14 6 15 5 16 2 17 1 18 3 19
REMARK H PARENT 17 10
ROOT
ATOM      1  N   UNL     1     -30.258   8.679   6.929  1.00  0.00    -0.252 NA
ATOM      2  C   UNL     1     -31.060   8.308   5.983  1.00  0.00    +0.120 C 
ENDROOT
BRANCH   1   3
ATOM      3  C   UNL     1     -29.283   9.640   6.594  1.00  0.00    +0.105 A 
ATOM      4  C   UNL     1     -27.906   9.361   6.522  1.00  0.00    +0.141 A 
ATOM      5  C   UNL     1     -26.991  10.349   6.151  1.00  0.00    +0.048 A 
ATOM      6  C   UNL     1     -29.719  10.926   6.261  1.00  0.00    +0.032 A 
ATOM      7  C   UNL     1     -27.446  11.630   5.837  1.00  0.00    +0.004 A 
ATOM      8  C   UNL     1     -28.809  11.918   5.890  1.00  0.00    +0.003 A 
BRANCH   4   9
ATOM      9  O   UNL     1     -27.454   8.102   6.824  1.00  0.00    -0.506 OA
ATOM     10  H   UNL     1     -26.687   7.907   6.264  1.00  0.00    +0.293 HD
ENDBRANCH   4   9
ENDBRANCH   1   3
BRANCH   2  11
ATOM     11  C   UNL     1     -32.134   7.324   6.220  1.00  0.00    -0.000 A 
ATOM     12  C   UNL     1     -32.234   6.725   7.477  1.00  0.00    +0.095 A 
ATOM     13  C   UNL     1     -33.038   6.994   5.202  1.00  0.00    +0.010 A 
ATOM     14  C   UNL     1     -33.253   5.789   7.704  1.00  0.00    +0.270 A 
ATOM     15  C   UNL     1     -34.049   6.060   5.437  1.00  0.00    +0.008 A 
ATOM     16  C   UNL     1     -34.161   5.454   6.689  1.00  0.00    +0.085 A 
BRANCH  14  17
ATOM     17  N   UNL     1     -33.369   5.150   9.021  1.00  0.00    +0.062 N 
ATOM     18  O   UNL     1     -34.313   4.369   9.203  1.00  0.00    -0.258 OA
ATOM     19  O   UNL     1     -32.515   5.431   9.874  1.00  0.00    -0.258 OA
ENDBRANCH  14  17
ENDBRANCH   2  11
TORSDOF 4
ENDMDL
MODEL 8
REMARK VINA RESULT:    -7.331      8.246     11.401
REMARK INTER + INTRA:          -9.163
REMARK INTER:                  -8.798
REMARK INTRA:                  -0.365
REMARK UNBOUND:                -0.333
REMARK SMILES O=[N+]([O-])c1cccc(C=Nc2ccccc2O)c1
REMARK SMILES IDX 10 1 9 2 11 3 16 4 15 5 12 6 14 7 13 8 17 9 8 11 18 12 7 13
REMARK SMILES IDX 4 14 6 15 5 16 2 17 1 18 3 19
REMARK H PARENT 17 10
ROOT
ATOM      1  N   UNL     1     -34.910   4.088  10.104  1.00  0.00    -0.252 NA
ATOM      2  C   UNL     1     -34.646   3.031  10.803  1.00  0.00    +0.120 C 
ENDROOT
BRANCH   1   3
ATOM      3  C   UNL     1     -36.238   4.556  10.140  1.00  0.00    +0.105 A 
ATOM      4  C   UNL     1     -36.663   5.745   9.520  1.00  0.00    +0.141 A 
ATOM      5  C   UNL     1     -38.001   6.140   9.562  1.00  0.00    +0.048 A 
ATOM      6  C   UNL     1     -37.195   3.763  10.781  1.00  0.00    +0.032 A 
ATOM      7  C   UNL     1     -38.937   5.341  10.220  1.00  0.00    +0.004 A 
ATOM      8  C   UNL     1     -38.535   4.152  10.827  1.00  0.00    +0.003 A 
BRANCH   4   9
ATOM      9  O   UNL     1     -35.747   6.532   8.867  1.00  0.00    -0.506 OA
ATOM     10  H   UNL     1     -36.201   6.999   8.148  1.00  0.00    +0.293 HD
ENDBRANCH   4   9
ENDBRANCH   1   3
BRANCH   2  11
ATOM     11  C   UNL     1     -33.285   2.460  10.860  1.00  0.00    -0.000 A 
ATOM     12  C   UNL     1     -32.930   1.672  11.956  1.00  0.00    +0.095 A 
ATOM     13  C   UNL     1     -32.364   2.706   9.834  1.00  0.00    +0.010 A 
ATOM     14  C   UNL     1     -31.639   1.130  12.014  1.00  0.00    +0.270 A 
ATOM     15  C   UNL     1     -31.079   2.162   9.899  1.00  0.00    +0.008 A 
ATOM     16  C   UNL     1     -30.711   1.371  10.989  1.00  0.00    +0.085 A 
BRANCH  14  17
ATOM     17  N   UNL     1     -31.252   0.301  13.161  1.00  0.00    +0.062 N 
ATOM     18  O   UNL     1     -30.959   0.876  14.219  1.00  0.00    -0.258 OA
ATOM     19  O   UNL     1     -31.240  -0.929  13.003  1.00  0.00    -0.258 OA
ENDBRANCH  14  17
ENDBRANCH   2  11
TORSDOF 4
ENDMDL
MODEL 9
REMARK VINA RESULT:    -7.154      6.210      7.389
REMARK INTER + INTRA:          -8.950
REMARK INTER:                  -8.574
REMARK INTRA:                  -0.376
REMARK UNBOUND:                -0.333
REMARK SMILES O=[N+]([O-])c1cccc(C=Nc2ccccc2O)c1
REMARK SMILES IDX 10 1 9 2 11 3 16 4 15 5 12 6 14 7 13 8 17 9 8 11 18 12 7 13
REMARK SMILES IDX 4 14 6 15 5 16 2 17 1 18 3 19
REMARK H PARENT 17 10
ROOT
ATOM      1  N   UNL     1     -26.467   0.842  11.164  1.00  0.00    -0.252 NA
ATOM      2  C   UNL     1     -27.013   1.206  12.280  1.00  0.00    +0.120 C 
ENDROOT
BRANCH   1   3
ATOM      3  C   UNL     1     -25.073   1.014  11.054  1.00  0.00    +0.105 A 
ATOM      4  C   UNL     1     -24.175  -0.038  10.800  1.00  0.00    +0.141 A 
ATOM      5  C   UNL     1     -22.806   0.201  10.669  1.00  0.00    +0.048 A 
ATOM      6  C   UNL     1     -24.565   2.314  11.147  1.00  0.00    +0.032 A 
ATOM      7  C   UNL     1     -22.317   1.503  10.779  1.00  0.00    +0.004 A 
ATOM      8  C   UNL     1     -23.196   2.559  11.016  1.00  0.00    +0.003 A 
BRANCH   4   9
ATOM      9  O   UNL     1     -24.651  -1.320  10.686  1.00  0.00    -0.506 OA
ATOM     10  H   UNL     1     -25.247  -1.494  11.431  1.00  0.00    +0.293 HD
ENDBRANCH   4   9
ENDBRANCH   1   3
BRANCH   2  11
ATOM     11  C   UNL     1     -28.462   1.054  12.520  1.00  0.00    -0.000 A 
ATOM     12  C   UNL     1     -29.325   1.007  11.423  1.00  0.00    +0.095 A 
ATOM     13  C   UNL     1     -28.964   0.962  13.824  1.00  0.00    +0.010 A 
ATOM     14  C   UNL     1     -30.701   0.865  11.648  1.00  0.00    +0.270 A 
ATOM     15  C   UNL     1     -30.337   0.820  14.038  1.00  0.00    +0.008 A 
ATOM     16  C   UNL     1     -31.211   0.771  12.951  1.00  0.00    +0.085 A 
BRANCH  14  17
ATOM     17  N   UNL     1     -31.621   0.815  10.505  1.00  0.00    +0.062 N 
ATOM     18  O   UNL     1     -31.400   1.575   9.551  1.00  0.00    -0.258 OA
ATOM     19  O   UNL     1     -32.565   0.014  10.561  1.00  0.00    -0.258 OA
ENDBRANCH  14  17
ENDBRANCH   2  11
TORSDOF 4
ENDMDL
