MODEL 1
REMARK VINA RESULT:    -9.771      0.000      0.000
REMARK INTER + INTRA:          -9.771
REMARK INTER:                  -9.771
REMARK INTRA:                   0.000
REMARK UNBOUND:                 0.000
REMARK SMILES c1ccc2c(c1)Nc1ccc3ccccc3c1S2
REMARK SMILES IDX 7 1 5 2 6 3 1 4 2 5 3 6 4 7 18 8 17 9 8 10 9 11 10 12 11 13
REMARK SMILES IDX 16 14 15 15 14 16 13 17 12 18
REMARK H PARENT 7 19
ROOT
ATOM      1  N   UNL     1     -28.655   7.450   7.968  1.00  0.00    -0.354 N 
ATOM      2  C   UNL     1     -27.526   6.617   8.021  1.00  0.00    +0.053 A 
ATOM      3  C   UNL     1     -27.633   5.364   8.647  1.00  0.00    +0.027 A 
ATOM      4  C   UNL     1     -26.528   4.518   8.759  1.00  0.00    +0.002 A 
ATOM      5  C   UNL     1     -25.296   4.922   8.258  1.00  0.00    +0.001 A 
ATOM      6  C   UNL     1     -25.171   6.173   7.653  1.00  0.00    +0.017 A 
ATOM      7  C   UNL     1     -26.277   7.028   7.537  1.00  0.00    +0.036 A 
ATOM      8  S   UNL     1     -26.021   8.609   6.764  1.00  0.00    -0.085 SA
ATOM      9  C   UNL     1     -27.655   9.377   6.769  1.00  0.00    +0.044 A 
ATOM     10  C   UNL     1     -28.758   8.705   7.342  1.00  0.00    +0.053 A 
ATOM     11  C   UNL     1     -30.005   9.340   7.360  1.00  0.00    +0.028 A 
ATOM     12  C   UNL     1     -30.180  10.601   6.795  1.00  0.00    +0.011 A 
ATOM     13  C   UNL     1     -29.108  11.275   6.205  1.00  0.00    -0.017 A 
ATOM     14  C   UNL     1     -27.822  10.678   6.182  1.00  0.00    -0.002 A 
ATOM     15  C   UNL     1     -26.784  11.431   5.569  1.00  0.00    +0.010 A 
ATOM     16  C   UNL     1     -27.006  12.694   5.012  1.00  0.00    +0.001 A 
ATOM     17  C   UNL     1     -28.274  13.252   5.049  1.00  0.00    +0.001 A 
ATOM     18  C   UNL     1     -29.318  12.546   5.641  1.00  0.00    +0.009 A 
ATOM     19  H   UNL     1     -29.536   6.989   8.160  1.00  0.00    +0.167 HD
ENDROOT
TORSDOF 0
ENDMDL
MODEL 2
REMARK VINA RESULT:    -9.636      1.500      6.586
REMARK INTER + INTRA:          -9.636
REMARK INTER:                  -9.636
REMARK INTRA:                   0.000
REMARK UNBOUND:                 0.000
REMARK SMILES c1ccc2c(c1)Nc1ccc3ccccc3c1S2
REMARK SMILES IDX 7 1 5 2 6 3 1 4 2 5 3 6 4 7 18 8 17 9 8 10 9 11 10 12 11 13
REMARK SMILES IDX 16 14 15 15 14 16 13 17 12 18
REMARK H PARENT 7 19
ROOT
ATOM      1  N   UNL     1     -25.931  10.099   5.981  1.00  0.00    -0.354 N 
ATOM      2  C   UNL     1     -27.060  10.921   5.843  1.00  0.00    +0.053 A 
ATOM      3  C   UNL     1     -26.918  12.176   5.228  1.00  0.00    +0.027 A 
ATOM      4  C   UNL     1     -28.004  13.044   5.104  1.00  0.00    +0.002 A 
ATOM      5  C   UNL     1     -29.246  12.673   5.608  1.00  0.00    +0.001 A 
ATOM      6  C   UNL     1     -29.396  11.438   6.239  1.00  0.00    +0.017 A 
ATOM      7  C   UNL     1     -28.309  10.561   6.367  1.00  0.00    +0.036 A 
ATOM      8  S   UNL     1     -28.589   9.014   7.201  1.00  0.00    -0.085 SA
ATOM      9  C   UNL     1     -26.994   8.172   7.126  1.00  0.00    +0.044 A 
ATOM     10  C   UNL     1     -25.884   8.798   6.516  1.00  0.00    +0.053 A 
ATOM     11  C   UNL     1     -24.653   8.134   6.502  1.00  0.00    +0.028 A 
ATOM     12  C   UNL     1     -24.516   6.859   7.046  1.00  0.00    +0.011 A 
ATOM     13  C   UNL     1     -25.604   6.212   7.635  1.00  0.00    -0.017 A 
ATOM     14  C   UNL     1     -26.866   6.857   7.690  1.00  0.00    -0.002 A 
ATOM     15  C   UNL     1     -27.921   6.135   8.311  1.00  0.00    +0.010 A 
ATOM     16  C   UNL     1     -27.738   4.855   8.842  1.00  0.00    +0.001 A 
ATOM     17  C   UNL     1     -26.493   4.249   8.774  1.00  0.00    +0.001 A 
ATOM     18  C   UNL     1     -25.434   4.924   8.174  1.00  0.00    +0.009 A 
ATOM     19  H   UNL     1     -25.141  10.357   5.403  1.00  0.00    +0.167 HD
ENDROOT
TORSDOF 0
ENDMDL
MODEL 3
REMARK VINA RESULT:    -9.575      1.314      2.588
REMARK INTER + INTRA:          -9.575
REMARK INTER:                  -9.575
REMARK INTRA:                   0.000
REMARK UNBOUND:                 0.000
REMARK SMILES c1ccc2c(c1)Nc1ccc3ccccc3c1S2
REMARK SMILES IDX 7 1 5 2 6 3 1 4 2 5 3 6 4 7 18 8 17 9 8 10 9 11 10 12 11 13
REMARK SMILES IDX 16 14 15 15 14 16 13 17 12 18
REMARK H PARENT 7 19
ROOT
ATOM      1  N   UNL     1     -25.475   7.747   6.964  1.00  0.00    -0.354 N 
ATOM      2  C   UNL     1     -25.964   6.651   7.691  1.00  0.00    +0.053 A 
ATOM      3  C   UNL     1     -25.100   5.581   7.974  1.00  0.00    +0.027 A 
ATOM      4  C   UNL     1     -25.552   4.452   8.659  1.00  0.00    +0.002 A 
ATOM      5  C   UNL     1     -26.882   4.372   9.057  1.00  0.00    +0.001 A 
ATOM      6  C   UNL     1     -27.756   5.419   8.763  1.00  0.00    +0.017 A 
ATOM      7  C   UNL     1     -27.308   6.556   8.076  1.00  0.00    +0.036 A 
ATOM      8  S   UNL     1     -28.497   7.834   7.731  1.00  0.00    -0.085 SA
ATOM      9  C   UNL     1     -27.543   9.115   6.889  1.00  0.00    +0.044 A 
ATOM     10  C   UNL     1     -26.166   8.927   6.633  1.00  0.00    +0.053 A 
ATOM     11  C   UNL     1     -25.461   9.924   5.949  1.00  0.00    +0.028 A 
ATOM     12  C   UNL     1     -26.084  11.104   5.553  1.00  0.00    +0.011 A 
ATOM     13  C   UNL     1     -27.439  11.321   5.814  1.00  0.00    -0.017 A 
ATOM     14  C   UNL     1     -28.198  10.329   6.486  1.00  0.00    -0.002 A 
ATOM     15  C   UNL     1     -29.570  10.622   6.709  1.00  0.00    +0.010 A 
ATOM     16  C   UNL     1     -30.154  11.823   6.295  1.00  0.00    +0.001 A 
ATOM     17  C   UNL     1     -29.387  12.774   5.640  1.00  0.00    +0.001 A 
ATOM     18  C   UNL     1     -28.039  12.524   5.403  1.00  0.00    +0.009 A 
ATOM     19  H   UNL     1     -24.466   7.809   6.911  1.00  0.00    +0.167 HD
ENDROOT
TORSDOF 0
ENDMDL
MODEL 4
REMARK VINA RESULT:    -8.788      3.306      4.574
REMARK INTER + INTRA:          -8.788
REMARK INTER:                  -8.788
REMARK INTRA:                   0.000
REMARK UNBOUND:                 0.000
REMARK SMILES c1ccc2c(c1)Nc1ccc3ccccc3c1S2
REMARK SMILES IDX 7 1 5 2 6 3 1 4 2 5 3 6 4 7 18 8 17 9 8 10 9 11 10 12 11 13
REMARK SMILES IDX 16 14 15 15 14 16 13 17 12 18
REMARK H PARENT 7 19
ROOT
ATOM      1  N   UNL     1     -29.827   5.979   8.599  1.00  0.00    -0.354 N 
ATOM      2  C   UNL     1     -31.067   5.358   8.818  1.00  0.00    +0.053 A 
ATOM      3  C   UNL     1     -31.093   4.065   9.366  1.00  0.00    +0.027 A 
ATOM      4  C   UNL     1     -32.300   3.391   9.565  1.00  0.00    +0.002 A 
ATOM      5  C   UNL     1     -33.498   3.998   9.203  1.00  0.00    +0.001 A 
ATOM      6  C   UNL     1     -33.484   5.274   8.639  1.00  0.00    +0.017 A 
ATOM      7  C   UNL     1     -32.275   5.957   8.436  1.00  0.00    +0.036 A 
ATOM      8  S   UNL     1     -32.352   7.572   7.696  1.00  0.00    -0.085 SA
ATOM      9  C   UNL     1     -30.633   8.121   7.643  1.00  0.00    +0.044 A 
ATOM     10  C   UNL     1     -29.601   7.280   8.113  1.00  0.00    +0.053 A 
ATOM     11  C   UNL     1     -28.275   7.720   8.029  1.00  0.00    +0.028 A 
ATOM     12  C   UNL     1     -27.965   8.981   7.524  1.00  0.00    +0.011 A 
ATOM     13  C   UNL     1     -28.972   9.838   7.074  1.00  0.00    -0.017 A 
ATOM     14  C   UNL     1     -30.327   9.425   7.121  1.00  0.00    -0.002 A 
ATOM     15  C   UNL     1     -31.290  10.351   6.637  1.00  0.00    +0.010 A 
ATOM     16  C   UNL     1     -30.934  11.608   6.141  1.00  0.00    +0.001 A 
ATOM     17  C   UNL     1     -29.600  11.985   6.107  1.00  0.00    +0.001 A 
ATOM     18  C   UNL     1     -28.627  11.105   6.571  1.00  0.00    +0.009 A 
ATOM     19  H   UNL     1     -29.046   5.556   9.084  1.00  0.00    +0.167 HD
ENDROOT
TORSDOF 0
ENDMDL
MODEL 5
REMARK VINA RESULT:    -8.513      7.696      9.823
REMARK INTER + INTRA:          -8.513
REMARK INTER:                  -8.513
REMARK INTRA:                   0.000
REMARK UNBOUND:                 0.000
REMARK SMILES c1ccc2c(c1)Nc1ccc3ccccc3c1S2
REMARK SMILES IDX 7 1 5 2 6 3 1 4 2 5 3 6 4 7 18 8 17 9 8 10 9 11 10 12 11 13
REMARK SMILES IDX 16 14 15 15 14 16 13 17 12 18
REMARK H PARENT 7 19
ROOT
ATOM      1  N   UNL     1     -28.348   2.632  10.606  1.00  0.00    -0.354 N 
ATOM      2  C   UNL     1     -29.306   1.642  10.338  1.00  0.00    +0.053 A 
ATOM      3  C   UNL     1     -30.662   2.005  10.278  1.00  0.00    +0.027 A 
ATOM      4  C   UNL     1     -31.654   1.049  10.054  1.00  0.00    +0.002 A 
ATOM      5  C   UNL     1     -31.304  -0.288   9.902  1.00  0.00    +0.001 A 
ATOM      6  C   UNL     1     -29.963  -0.665   9.981  1.00  0.00    +0.017 A 
ATOM      7  C   UNL     1     -28.961   0.291  10.206  1.00  0.00    +0.036 A 
ATOM      8  S   UNL     1     -27.280  -0.283  10.307  1.00  0.00    -0.085 SA
ATOM      9  C   UNL     1     -26.310   1.219  10.557  1.00  0.00    +0.044 A 
ATOM     10  C   UNL     1     -26.951   2.474  10.652  1.00  0.00    +0.053 A 
ATOM     11  C   UNL     1     -26.175   3.617  10.879  1.00  0.00    +0.028 A 
ATOM     12  C   UNL     1     -24.788   3.538  10.976  1.00  0.00    +0.011 A 
ATOM     13  C   UNL     1     -24.131   2.310  10.864  1.00  0.00    -0.017 A 
ATOM     14  C   UNL     1     -24.880   1.124  10.655  1.00  0.00    -0.002 A 
ATOM     15  C   UNL     1     -24.139  -0.085  10.558  1.00  0.00    +0.010 A 
ATOM     16  C   UNL     1     -22.745  -0.116  10.659  1.00  0.00    +0.001 A 
ATOM     17  C   UNL     1     -22.040   1.059  10.863  1.00  0.00    +0.001 A 
ATOM     18  C   UNL     1     -22.730   2.264  10.964  1.00  0.00    +0.009 A 
ATOM     19  H   UNL     1     -28.672   3.584  10.487  1.00  0.00    +0.167 HD
ENDROOT
TORSDOF 0
ENDMDL
MODEL 6
REMARK VINA RESULT:    -8.513      5.750      9.797
REMARK INTER + INTRA:          -8.513
REMARK INTER:                  -8.513
REMARK INTRA:                   0.000
REMARK UNBOUND:                 0.000
REMARK SMILES c1ccc2c(c1)Nc1ccc3ccccc3c1S2
REMARK SMILES IDX 7 1 5 2 6 3 1 4 2 5 3 6 4 7 18 8 17 9 8 10 9 11 10 12 11 13
REMARK SMILES IDX 16 14 15 15 14 16 13 17 12 18
REMARK H PARENT 7 19
ROOT
ATOM      1  N   UNL     1     -28.625   2.931   9.613  1.00  0.00    -0.354 N 
ATOM      2  C   UNL     1     -27.425   3.655   9.542  1.00  0.00    +0.053 A 
ATOM      3  C   UNL     1     -27.138   4.385   8.377  1.00  0.00    +0.027 A 
ATOM      4  C   UNL     1     -25.940   5.088   8.244  1.00  0.00    +0.002 A 
ATOM      5  C   UNL     1     -25.004   5.059   9.272  1.00  0.00    +0.001 A 
ATOM      6  C   UNL     1     -25.268   4.321  10.426  1.00  0.00    +0.017 A 
ATOM      7  C   UNL     1     -26.470   3.612  10.566  1.00  0.00    +0.036 A 
ATOM      8  S   UNL     1     -26.713   2.686  12.065  1.00  0.00    -0.085 SA
ATOM      9  C   UNL     1     -28.358   1.965  11.882  1.00  0.00    +0.044 A 
ATOM     10  C   UNL     1     -29.109   2.190  10.708  1.00  0.00    +0.053 A 
ATOM     11  C   UNL     1     -30.367   1.591  10.581  1.00  0.00    +0.028 A 
ATOM     12  C   UNL     1     -30.900   0.811  11.605  1.00  0.00    +0.011 A 
ATOM     13  C   UNL     1     -30.184   0.592  12.784  1.00  0.00    -0.017 A 
ATOM     14  C   UNL     1     -28.896   1.163  12.946  1.00  0.00    -0.002 A 
ATOM     15  C   UNL     1     -28.230   0.888  14.171  1.00  0.00    +0.010 A 
ATOM     16  C   UNL     1     -28.805   0.100  15.173  1.00  0.00    +0.001 A 
ATOM     17  C   UNL     1     -30.065  -0.444  14.986  1.00  0.00    +0.001 A 
ATOM     18  C   UNL     1     -30.750  -0.199  13.799  1.00  0.00    +0.009 A 
ATOM     19  H   UNL     1     -29.320   3.185   8.923  1.00  0.00    +0.167 HD
ENDROOT
TORSDOF 0
ENDMDL
MODEL 7
REMARK VINA RESULT:    -8.388      7.925     11.201
REMARK INTER + INTRA:          -8.388
REMARK INTER:                  -8.388
REMARK INTRA:                   0.000
REMARK UNBOUND:                 0.000
REMARK SMILES c1ccc2c(c1)Nc1ccc3ccccc3c1S2
REMARK SMILES IDX 7 1 5 2 6 3 1 4 2 5 3 6 4 7 18 8 17 9 8 10 9 11 10 12 11 13
REMARK SMILES IDX 16 14 15 15 14 16 13 17 12 18
REMARK H PARENT 7 19
ROOT
ATOM      1  N   UNL     1     -35.022   5.368   9.549  1.00  0.00    -0.354 N 
ATOM      2  C   UNL     1     -36.411   5.236   9.703  1.00  0.00    +0.053 A 
ATOM      3  C   UNL     1     -37.227   6.365   9.526  1.00  0.00    +0.027 A 
ATOM      4  C   UNL     1     -38.608   6.291   9.708  1.00  0.00    +0.002 A 
ATOM      5  C   UNL     1     -39.192   5.086  10.084  1.00  0.00    +0.001 A 
ATOM      6  C   UNL     1     -38.390   3.962  10.283  1.00  0.00    +0.017 A 
ATOM      7  C   UNL     1     -37.001   4.029  10.102  1.00  0.00    +0.036 A 
ATOM      8  S   UNL     1     -36.057   2.550  10.393  1.00  0.00    -0.085 SA
ATOM      9  C   UNL     1     -34.356   3.027  10.022  1.00  0.00    +0.044 A 
ATOM     10  C   UNL     1     -34.055   4.350   9.631  1.00  0.00    +0.053 A 
ATOM     11  C   UNL     1     -32.722   4.697   9.382  1.00  0.00    +0.028 A 
ATOM     12  C   UNL     1     -31.701   3.755   9.481  1.00  0.00    +0.011 A 
ATOM     13  C   UNL     1     -31.979   2.436   9.845  1.00  0.00    -0.017 A 
ATOM     14  C   UNL     1     -33.312   2.044  10.127  1.00  0.00    -0.002 A 
ATOM     15  C   UNL     1     -33.510   0.687  10.497  1.00  0.00    +0.010 A 
ATOM     16  C   UNL     1     -32.455  -0.226  10.581  1.00  0.00    +0.001 A 
ATOM     17  C   UNL     1     -31.161   0.185  10.300  1.00  0.00    +0.001 A 
ATOM     18  C   UNL     1     -30.926   1.508   9.934  1.00  0.00    +0.009 A 
ATOM     19  H   UNL     1     -34.723   6.210   9.073  1.00  0.00    +0.167 HD
ENDROOT
TORSDOF 0
ENDMDL
MODEL 8
REMARK VINA RESULT:    -8.321      6.130      7.497
REMARK INTER + INTRA:          -8.321
REMARK INTER:                  -8.321
REMARK INTRA:                   0.000
REMARK UNBOUND:                 0.000
REMARK SMILES c1ccc2c(c1)Nc1ccc3ccccc3c1S2
REMARK SMILES IDX 7 1 5 2 6 3 1 4 2 5 3 6 4 7 18 8 17 9 8 10 9 11 10 12 11 13
REMARK SMILES IDX 16 14 15 15 14 16 13 17 12 18
REMARK H PARENT 7 19
ROOT
ATOM      1  N   UNL     1     -34.828   3.566   7.785  1.00  0.00    -0.354 N 
ATOM      2  C   UNL     1     -34.656   3.012   9.064  1.00  0.00    +0.053 A 
ATOM      3  C   UNL     1     -35.437   1.907   9.438  1.00  0.00    +0.027 A 
ATOM      4  C   UNL     1     -35.328   1.347  10.712  1.00  0.00    +0.002 A 
ATOM      5  C   UNL     1     -34.446   1.896  11.636  1.00  0.00    +0.001 A 
ATOM      6  C   UNL     1     -33.680   3.008  11.283  1.00  0.00    +0.017 A 
ATOM      7  C   UNL     1     -33.783   3.575  10.005  1.00  0.00    +0.036 A 
ATOM      8  S   UNL     1     -32.779   5.000   9.650  1.00  0.00    -0.085 SA
ATOM      9  C   UNL     1     -33.162   5.397   7.931  1.00  0.00    +0.044 A 
ATOM     10  C   UNL     1     -34.108   4.631   7.215  1.00  0.00    +0.053 A 
ATOM     11  C   UNL     1     -34.407   4.983   5.894  1.00  0.00    +0.028 A 
ATOM     12  C   UNL     1     -33.764   6.050   5.269  1.00  0.00    +0.011 A 
ATOM     13  C   UNL     1     -32.810   6.809   5.951  1.00  0.00    -0.017 A 
ATOM     14  C   UNL     1     -32.491   6.500   7.298  1.00  0.00    -0.002 A 
ATOM     15  C   UNL     1     -31.516   7.323   7.923  1.00  0.00    +0.010 A 
ATOM     16  C   UNL     1     -30.894   8.382   7.257  1.00  0.00    +0.001 A 
ATOM     17  C   UNL     1     -31.226   8.661   5.940  1.00  0.00    +0.001 A 
ATOM     18  C   UNL     1     -32.178   7.878   5.293  1.00  0.00    +0.009 A 
ATOM     19  H   UNL     1     -35.322   2.977   7.127  1.00  0.00    +0.167 HD
ENDROOT
TORSDOF 0
ENDMDL
MODEL 9
REMARK VINA RESULT:    -8.252      4.544      6.053
REMARK INTER + INTRA:          -8.252
REMARK INTER:                  -8.252
REMARK INTRA:                   0.000
REMARK UNBOUND:                 0.000
REMARK SMILES c1ccc2c(c1)Nc1ccc3ccccc3c1S2
REMARK SMILES IDX 7 1 5 2 6 3 1 4 2 5 3 6 4 7 18 8 17 9 8 10 9 11 10 12 11 13
REMARK SMILES IDX 16 14 15 15 14 16 13 17 12 18
REMARK H PARENT 7 19
ROOT
ATOM      1  N   UNL     1     -33.853   7.056   7.699  1.00  0.00    -0.354 N 
ATOM      2  C   UNL     1     -34.158   5.819   8.290  1.00  0.00    +0.053 A 
ATOM      3  C   UNL     1     -35.502   5.423   8.386  1.00  0.00    +0.027 A 
ATOM      4  C   UNL     1     -35.857   4.221   9.001  1.00  0.00    +0.002 A 
ATOM      5  C   UNL     1     -34.870   3.405   9.542  1.00  0.00    +0.001 A 
ATOM      6  C   UNL     1     -33.533   3.797   9.472  1.00  0.00    +0.017 A 
ATOM      7  C   UNL     1     -33.170   5.003   8.856  1.00  0.00    +0.036 A 
ATOM      8  S   UNL     1     -31.443   5.429   8.827  1.00  0.00    -0.085 SA
ATOM      9  C   UNL     1     -31.385   6.995   7.932  1.00  0.00    +0.044 A 
ATOM     10  C   UNL     1     -32.575   7.596   7.466  1.00  0.00    +0.053 A 
ATOM     11  C   UNL     1     -32.501   8.826   6.804  1.00  0.00    +0.028 A 
ATOM     12  C   UNL     1     -31.276   9.445   6.569  1.00  0.00    +0.011 A 
ATOM     13  C   UNL     1     -30.084   8.859   7.002  1.00  0.00    -0.017 A 
ATOM     14  C   UNL     1     -30.114   7.623   7.695  1.00  0.00    -0.002 A 
ATOM     15  C   UNL     1     -28.860   7.096   8.107  1.00  0.00    +0.010 A 
ATOM     16  C   UNL     1     -27.653   7.751   7.847  1.00  0.00    +0.001 A 
ATOM     17  C   UNL     1     -27.654   8.959   7.167  1.00  0.00    +0.001 A 
ATOM     18  C   UNL     1     -28.863   9.508   6.747  1.00  0.00    +0.009 A 
ATOM     19  H   UNL     1     -34.601   7.465   7.154  1.00  0.00    +0.167 HD
ENDROOT
TORSDOF 0
ENDMDL
