REMARK SMILES Nc1ccc(C(=O)Nc2ccc3c(O)cc(S(=O)(=O)O)cc3c2)cc1
REMARK SMILES IDX 9 1 23 2 22 3 21 4 16 5 15 6 13 7 12 8 11 9 10 10 8 11 6 12
REMARK SMILES IDX 7 13 5 15 2 16 3 17 25 18 4 19 24 20 1 21 17 24 18 25 19 26
REMARK SMILES IDX 20 27 14 29
REMARK H PARENT 8 14 1 22 1 23 20 28 14 30
ROOT
ATOM      1  C   UNL     1       0.034  -0.796  -0.183  1.00  0.00    +0.042 A 
ATOM      2  C   UNL     1      -1.026   0.090   0.023  1.00  0.00    +0.035 A 
ATOM      3  C   UNL     1      -2.359  -0.361   0.065  1.00  0.00    -0.011 A 
ATOM      4  C   UNL     1      -3.415   0.539   0.277  1.00  0.00    +0.032 A 
ATOM      5  C   UNL     1      -4.732   0.076   0.321  1.00  0.00    +0.098 A 
ATOM      6  C   UNL     1      -5.028  -1.277   0.154  1.00  0.00    +0.069 A 
ATOM      7  C   UNL     1      -3.983  -2.170  -0.062  1.00  0.00    +0.124 A 
ATOM      8  C   UNL     1      -2.641  -1.737  -0.108  1.00  0.00    +0.024 A 
ATOM      9  C   UNL     1      -1.565  -2.617  -0.321  1.00  0.00    +0.015 A 
ATOM     10  C   UNL     1      -0.247  -2.152  -0.359  1.00  0.00    +0.027 A 
ENDROOT
BRANCH   1  11
ATOM     11  N   UNL     1       1.389  -0.407  -0.239  1.00  0.00    -0.322 N 
ATOM     12  C   UNL     1       1.913   0.852  -0.005  1.00  0.00    +0.255 C 
ATOM     13  O   UNL     1       1.302   1.847   0.365  1.00  0.00    -0.269 OA
ATOM     14  H   UNL     1       2.052  -1.155  -0.396  1.00  0.00    +0.170 HD
BRANCH  12  15
ATOM     15  C   UNL     1       3.387   0.958  -0.192  1.00  0.00    +0.040 A 
ATOM     16  C   UNL     1       6.168   1.241  -0.505  1.00  0.00    +0.031 A 
ATOM     17  C   UNL     1       5.501   1.891   0.536  1.00  0.00    +0.026 A 
ATOM     18  C   UNL     1       5.439   0.396  -1.348  1.00  0.00    +0.026 A 
ATOM     19  C   UNL     1       4.115   1.775   0.678  1.00  0.00    +0.016 A 
ATOM     20  C   UNL     1       4.052   0.271  -1.213  1.00  0.00    +0.016 A 
BRANCH  16  21
ATOM     21  N   UNL     1       7.565   1.263  -0.569  1.00  0.00    -0.399 N 
ATOM     22  H   UNL     1       7.982   2.095  -0.162  1.00  0.00    +0.156 HD
ATOM     23  H   UNL     1       7.941   1.057  -1.489  1.00  0.00    +0.156 HD
ENDBRANCH  16  21
ENDBRANCH  12  15
ENDBRANCH   1  11
BRANCH   5  24
ATOM     24  S   UNL     1      -6.063   1.202   0.617  1.00  0.00    +0.294 S 
ATOM     25  O   UNL     1      -6.947   1.146  -0.525  1.00  0.00    -0.194 OA
ATOM     26  O   UNL     1      -5.518   2.447   1.113  1.00  0.00    -0.194 OA
BRANCH  24  27
ATOM     27  O   UNL     1      -6.839   0.561   1.879  1.00  0.00    -0.282 OA
ATOM     28  H   UNL     1      -6.810   1.221   2.604  1.00  0.00    +0.234 HD
ENDBRANCH  24  27
ENDBRANCH   5  24
BRANCH   7  29
ATOM     29  O   UNL     1      -4.259  -3.502  -0.233  1.00  0.00    -0.507 OA
ATOM     30  H   UNL     1      -5.222  -3.634  -0.232  1.00  0.00    +0.293 HD
ENDBRANCH   7  29
TORSDOF 6
