MODEL 1
REMARK VINA RESULT:   -10.480      0.000      0.000
REMARK INTER + INTRA:         -10.786
REMARK INTER:                 -10.786
REMARK INTRA:                   0.000
REMARK UNBOUND:                 0.000
REMARK SMILES Nc1ccc2c(c1)C(=O)c1ccccc1C2=O
REMARK SMILES IDX 1 1 2 4 7 5 3 6 6 7 4 8 5 9 8 10 16 11 10 12 9 13 17 14
REMARK SMILES IDX 15 15 11 16 14 17 12 18 13 19
REMARK H PARENT 1 2 1 3
ROOT
ATOM      1  N   UNL     1     -28.249  13.730   4.693  1.00  0.00    -0.399 N 
ATOM      2  H   UNL     1     -28.913  13.788   3.926  1.00  0.00    +0.156 HD
ATOM      3  H   UNL     1     -27.310  13.998   4.411  1.00  0.00    +0.156 HD
ENDROOT
BRANCH   1   4
ATOM      4  C   UNL     1     -28.318  12.544   5.428  1.00  0.00    +0.032 A 
ATOM      5  C   UNL     1     -27.203  11.706   5.516  1.00  0.00    +0.038 A 
ATOM      6  C   UNL     1     -29.550  12.075   5.892  1.00  0.00    +0.026 A 
ATOM      7  C   UNL     1     -27.298  10.457   6.147  1.00  0.00    +0.036 A 
ATOM      8  C   UNL     1     -29.651  10.831   6.521  1.00  0.00    +0.015 A 
ATOM      9  C   UNL     1     -28.518  10.022   6.655  1.00  0.00    +0.034 A 
ATOM     10  C   UNL     1     -26.097   9.605   6.259  1.00  0.00    +0.194 C 
ATOM     11  C   UNL     1     -28.632   8.706   7.315  1.00  0.00    +0.194 C 
ATOM     12  C   UNL     1     -26.210   8.283   6.908  1.00  0.00    +0.034 A 
ATOM     13  O   UNL     1     -25.019   9.990   5.821  1.00  0.00    -0.289 OA
ATOM     14  O   UNL     1     -29.705   8.331   7.771  1.00  0.00    -0.289 OA
ATOM     15  C   UNL     1     -27.432   7.850   7.420  1.00  0.00    +0.034 A 
ATOM     16  C   UNL     1     -25.080   7.463   7.013  1.00  0.00    +0.013 A 
ATOM     17  C   UNL     1     -27.529   6.596   8.036  1.00  0.00    +0.013 A 
ATOM     18  C   UNL     1     -25.177   6.213   7.628  1.00  0.00    +0.001 A 
ATOM     19  C   UNL     1     -26.401   5.780   8.139  1.00  0.00    +0.001 A 
ENDBRANCH   1   4
TORSDOF 1
ENDMDL
MODEL 2
REMARK VINA RESULT:   -10.144      2.450      5.066
REMARK INTER + INTRA:         -10.441
REMARK INTER:                 -10.441
REMARK INTRA:                   0.000
REMARK UNBOUND:                 0.000
REMARK SMILES Nc1ccc2c(c1)C(=O)c1ccccc1C2=O
REMARK SMILES IDX 1 1 2 4 7 5 3 6 6 7 4 8 5 9 8 10 16 11 10 12 9 13 17 14
REMARK SMILES IDX 15 15 11 16 14 17 12 18 13 19
REMARK H PARENT 1 2 1 3
ROOT
ATOM      1  N   UNL     1     -25.399   5.149   8.190  1.00  0.00    -0.399 N 
ATOM      2  H   UNL     1     -25.722   4.211   7.974  1.00  0.00    +0.156 HD
ATOM      3  H   UNL     1     -25.035   5.223   9.136  1.00  0.00    +0.156 HD
ENDROOT
BRANCH   1   4
ATOM      4  C   UNL     1     -26.290   6.164   7.830  1.00  0.00    +0.032 A 
ATOM      5  C   UNL     1     -25.826   7.306   7.174  1.00  0.00    +0.038 A 
ATOM      6  C   UNL     1     -27.600   6.153   8.315  1.00  0.00    +0.026 A 
ATOM      7  C   UNL     1     -26.688   8.383   6.919  1.00  0.00    +0.036 A 
ATOM      8  C   UNL     1     -28.464   7.222   8.066  1.00  0.00    +0.015 A 
ATOM      9  C   UNL     1     -28.008   8.338   7.358  1.00  0.00    +0.034 A 
ATOM     10  C   UNL     1     -26.183   9.564   6.191  1.00  0.00    +0.194 C 
ATOM     11  C   UNL     1     -28.923   9.468   7.102  1.00  0.00    +0.194 C 
ATOM     12  C   UNL     1     -27.094  10.700   5.944  1.00  0.00    +0.034 A 
ATOM     13  O   UNL     1     -25.024   9.601   5.794  1.00  0.00    -0.289 OA
ATOM     14  O   UNL     1     -30.088   9.422   7.480  1.00  0.00    -0.289 OA
ATOM     15  C   UNL     1     -28.416  10.653   6.381  1.00  0.00    +0.034 A 
ATOM     16  C   UNL     1     -26.623  11.830   5.261  1.00  0.00    +0.013 A 
ATOM     17  C   UNL     1     -29.272  11.736   6.139  1.00  0.00    +0.013 A 
ATOM     18  C   UNL     1     -27.478  12.908   5.022  1.00  0.00    +0.001 A 
ATOM     19  C   UNL     1     -28.801  12.860   5.460  1.00  0.00    +0.001 A 
ENDBRANCH   1   4
TORSDOF 1
ENDMDL
MODEL 3
REMARK VINA RESULT:    -9.968      2.460      5.773
REMARK INTER + INTRA:         -10.260
REMARK INTER:                 -10.260
REMARK INTRA:                   0.000
REMARK UNBOUND:                 0.000
REMARK SMILES Nc1ccc2c(c1)C(=O)c1ccccc1C2=O
REMARK SMILES IDX 1 1 2 4 7 5 3 6 6 7 4 8 5 9 8 10 16 11 10 12 9 13 17 14
REMARK SMILES IDX 15 15 11 16 14 17 12 18 13 19
REMARK H PARENT 1 2 1 3
ROOT
ATOM      1  N   UNL     1     -26.799   4.535   8.673  1.00  0.00    -0.399 N 
ATOM      2  H   UNL     1     -27.769   4.287   8.840  1.00  0.00    +0.156 HD
ATOM      3  H   UNL     1     -26.197   4.291   9.455  1.00  0.00    +0.156 HD
ENDROOT
BRANCH   1   4
ATOM      4  C   UNL     1     -26.611   5.829   8.179  1.00  0.00    +0.032 A 
ATOM      5  C   UNL     1     -27.703   6.684   8.013  1.00  0.00    +0.038 A 
ATOM      6  C   UNL     1     -25.377   6.203   7.641  1.00  0.00    +0.026 A 
ATOM      7  C   UNL     1     -27.542   7.937   7.404  1.00  0.00    +0.036 A 
ATOM      8  C   UNL     1     -25.209   7.450   7.033  1.00  0.00    +0.015 A 
ATOM      9  C   UNL     1     -26.296   8.323   6.921  1.00  0.00    +0.034 A 
ATOM     10  C   UNL     1     -28.706   8.838   7.273  1.00  0.00    +0.194 C 
ATOM     11  C   UNL     1     -26.115   9.637   6.272  1.00  0.00    +0.194 C 
ATOM     12  C   UNL     1     -28.530  10.148   6.614  1.00  0.00    +0.034 A 
ATOM     13  O   UNL     1     -29.802   8.504   7.707  1.00  0.00    -0.289 OA
ATOM     14  O   UNL     1     -25.014   9.979   5.857  1.00  0.00    -0.289 OA
ATOM     15  C   UNL     1     -27.280  10.535   6.133  1.00  0.00    +0.034 A 
ATOM     16  C   UNL     1     -29.628  11.007   6.476  1.00  0.00    +0.013 A 
ATOM     17  C   UNL     1     -27.124  11.781   5.512  1.00  0.00    +0.013 A 
ATOM     18  C   UNL     1     -29.470  12.248   5.857  1.00  0.00    +0.001 A 
ATOM     19  C   UNL     1     -28.220  12.635   5.375  1.00  0.00    +0.001 A 
ENDBRANCH   1   4
TORSDOF 1
ENDMDL
MODEL 4
REMARK VINA RESULT:    -9.472      3.089      5.237
REMARK INTER + INTRA:          -9.749
REMARK INTER:                  -9.749
REMARK INTRA:                   0.000
REMARK UNBOUND:                 0.000
REMARK SMILES Nc1ccc2c(c1)C(=O)c1ccccc1C2=O
REMARK SMILES IDX 1 1 2 4 7 5 3 6 6 7 4 8 5 9 8 10 16 11 10 12 9 13 17 14
REMARK SMILES IDX 15 15 11 16 14 17 12 18 13 19
REMARK H PARENT 1 2 1 3
ROOT
ATOM      1  N   UNL     1     -33.869   7.819   7.685  1.00  0.00    -0.399 N 
ATOM      2  H   UNL     1     -34.101   6.890   7.347  1.00  0.00    +0.156 HD
ATOM      3  H   UNL     1     -34.512   8.527   7.341  1.00  0.00    +0.156 HD
ENDROOT
BRANCH   1   4
ATOM      4  C   UNL     1     -32.518   8.157   7.565  1.00  0.00    +0.032 A 
ATOM      5  C   UNL     1     -32.147   9.393   7.030  1.00  0.00    +0.038 A 
ATOM      6  C   UNL     1     -31.532   7.187   7.765  1.00  0.00    +0.026 A 
ATOM      7  C   UNL     1     -30.798   9.691   6.792  1.00  0.00    +0.036 A 
ATOM      8  C   UNL     1     -30.186   7.477   7.529  1.00  0.00    +0.015 A 
ATOM      9  C   UNL     1     -29.817   8.737   7.047  1.00  0.00    +0.034 A 
ATOM     10  C   UNL     1     -30.428  11.018   6.260  1.00  0.00    +0.194 C 
ATOM     11  C   UNL     1     -28.393   9.037   6.793  1.00  0.00    +0.194 C 
ATOM     12  C   UNL     1     -29.006  11.316   5.995  1.00  0.00    +0.034 A 
ATOM     13  O   UNL     1     -31.289  11.863   6.044  1.00  0.00    -0.289 OA
ATOM     14  O   UNL     1     -27.531   8.199   7.029  1.00  0.00    -0.289 OA
ATOM     15  C   UNL     1     -28.024  10.361   6.254  1.00  0.00    +0.034 A 
ATOM     16  C   UNL     1     -28.644  12.569   5.483  1.00  0.00    +0.013 A 
ATOM     17  C   UNL     1     -26.678  10.655   6.001  1.00  0.00    +0.013 A 
ATOM     18  C   UNL     1     -27.302  12.860   5.231  1.00  0.00    +0.001 A 
ATOM     19  C   UNL     1     -26.320  11.904   5.490  1.00  0.00    +0.001 A 
ENDBRANCH   1   4
TORSDOF 1
ENDMDL
MODEL 5
REMARK VINA RESULT:    -8.990      3.190      5.089
REMARK INTER + INTRA:          -9.253
REMARK INTER:                  -9.253
REMARK INTRA:                   0.000
REMARK UNBOUND:                 0.000
REMARK SMILES Nc1ccc2c(c1)C(=O)c1ccccc1C2=O
REMARK SMILES IDX 1 1 2 4 7 5 3 6 6 7 4 8 5 9 8 10 16 11 10 12 9 13 17 14
REMARK SMILES IDX 15 15 11 16 14 17 12 18 13 19
REMARK H PARENT 1 2 1 3
ROOT
ATOM      1  N   UNL     1     -31.649   5.862   8.639  1.00  0.00    -0.399 N 
ATOM      2  H   UNL     1     -32.515   5.861   9.170  1.00  0.00    +0.156 HD
ATOM      3  H   UNL     1     -30.872   5.476   9.169  1.00  0.00    +0.156 HD
ENDROOT
BRANCH   1   4
ATOM      4  C   UNL     1     -31.368   7.070   7.995  1.00  0.00    +0.032 A 
ATOM      5  C   UNL     1     -30.050   7.407   7.678  1.00  0.00    +0.038 A 
ATOM      6  C   UNL     1     -32.362   8.043   7.862  1.00  0.00    +0.026 A 
ATOM      7  C   UNL     1     -29.745   8.668   7.144  1.00  0.00    +0.036 A 
ATOM      8  C   UNL     1     -32.065   9.301   7.331  1.00  0.00    +0.015 A 
ATOM      9  C   UNL     1     -30.752   9.612   6.964  1.00  0.00    +0.034 A 
ATOM     10  C   UNL     1     -28.349   8.988   6.784  1.00  0.00    +0.194 C 
ATOM     11  C   UNL     1     -30.442  10.944   6.409  1.00  0.00    +0.194 C 
ATOM     12  C   UNL     1     -28.035  10.325   6.239  1.00  0.00    +0.034 A 
ATOM     13  O   UNL     1     -27.462   8.155   6.932  1.00  0.00    -0.289 OA
ATOM     14  O   UNL     1     -31.332  11.769   6.241  1.00  0.00    -0.289 OA
ATOM     15  C   UNL     1     -29.044  11.267   6.056  1.00  0.00    +0.034 A 
ATOM     16  C   UNL     1     -26.713  10.642   5.901  1.00  0.00    +0.013 A 
ATOM     17  C   UNL     1     -28.736  12.531   5.536  1.00  0.00    +0.013 A 
ATOM     18  C   UNL     1     -26.407  11.903   5.384  1.00  0.00    +0.001 A 
ATOM     19  C   UNL     1     -27.418  12.846   5.201  1.00  0.00    +0.001 A 
ENDBRANCH   1   4
TORSDOF 1
ENDMDL
MODEL 6
REMARK VINA RESULT:    -8.761      2.342      3.836
REMARK INTER + INTRA:          -9.017
REMARK INTER:                  -9.017
REMARK INTRA:                   0.000
REMARK UNBOUND:                 0.000
REMARK SMILES Nc1ccc2c(c1)C(=O)c1ccccc1C2=O
REMARK SMILES IDX 1 1 2 4 7 5 3 6 6 7 4 8 5 9 8 10 16 11 10 12 9 13 17 14
REMARK SMILES IDX 15 15 11 16 14 17 12 18 13 19
REMARK H PARENT 1 2 1 3
ROOT
ATOM      1  N   UNL     1     -25.372  11.863   5.290  1.00  0.00    -0.399 N 
ATOM      2  H   UNL     1     -24.684  11.866   6.037  1.00  0.00    +0.156 HD
ATOM      3  H   UNL     1     -25.284  12.672   4.682  1.00  0.00    +0.156 HD
ENDROOT
BRANCH   1   4
ATOM      4  C   UNL     1     -26.677  11.590   5.707  1.00  0.00    +0.032 A 
ATOM      5  C   UNL     1     -27.010  10.322   6.192  1.00  0.00    +0.038 A 
ATOM      6  C   UNL     1     -27.705  12.498   5.439  1.00  0.00    +0.026 A 
ATOM      7  C   UNL     1     -28.341  10.001   6.496  1.00  0.00    +0.036 A 
ATOM      8  C   UNL     1     -29.033  12.184   5.739  1.00  0.00    +0.015 A 
ATOM      9  C   UNL     1     -29.351  10.933   6.277  1.00  0.00    +0.034 A 
ATOM     10  C   UNL     1     -28.662   8.667   7.041  1.00  0.00    +0.194 C 
ATOM     11  C   UNL     1     -30.756  10.605   6.587  1.00  0.00    +0.194 C 
ATOM     12  C   UNL     1     -30.069   8.332   7.341  1.00  0.00    +0.034 A 
ATOM     13  O   UNL     1     -27.772   7.848   7.245  1.00  0.00    -0.289 OA
ATOM     14  O   UNL     1     -31.642  11.431   6.404  1.00  0.00    -0.289 OA
ATOM     15  C   UNL     1     -31.079   9.267   7.124  1.00  0.00    +0.034 A 
ATOM     16  C   UNL     1     -30.386   7.066   7.851  1.00  0.00    +0.013 A 
ATOM     17  C   UNL     1     -32.410   8.940   7.415  1.00  0.00    +0.013 A 
ATOM     18  C   UNL     1     -31.713   6.742   8.140  1.00  0.00    +0.001 A 
ATOM     19  C   UNL     1     -32.724   7.678   7.923  1.00  0.00    +0.001 A 
ENDBRANCH   1   4
TORSDOF 1
ENDMDL
MODEL 7
REMARK VINA RESULT:    -7.719      9.306     11.519
REMARK INTER + INTRA:          -7.945
REMARK INTER:                  -7.945
REMARK INTRA:                   0.000
REMARK UNBOUND:                 0.000
REMARK SMILES Nc1ccc2c(c1)C(=O)c1ccccc1C2=O
REMARK SMILES IDX 1 1 2 4 7 5 3 6 6 7 4 8 5 9 8 10 16 11 10 12 9 13 17 14
REMARK SMILES IDX 15 15 11 16 14 17 12 18 13 19
REMARK H PARENT 1 2 1 3
ROOT
ATOM      1  N   UNL     1     -30.670   2.007   9.853  1.00  0.00    -0.399 N 
ATOM      2  H   UNL     1     -30.235   2.893   9.615  1.00  0.00    +0.156 HD
ATOM      3  H   UNL     1     -30.304   1.237   9.301  1.00  0.00    +0.156 HD
ENDROOT
BRANCH   1   4
ATOM      4  C   UNL     1     -32.064   2.051   9.934  1.00  0.00    +0.032 A 
ATOM      5  C   UNL     1     -32.752   3.215   9.582  1.00  0.00    +0.038 A 
ATOM      6  C   UNL     1     -32.764   1.023  10.572  1.00  0.00    +0.026 A 
ATOM      7  C   UNL     1     -34.138   3.311   9.776  1.00  0.00    +0.036 A 
ATOM      8  C   UNL     1     -34.144   1.112  10.769  1.00  0.00    +0.015 A 
ATOM      9  C   UNL     1     -34.835   2.258  10.363  1.00  0.00    +0.034 A 
ATOM     10  C   UNL     1     -34.849   4.538   9.363  1.00  0.00    +0.194 C 
ATOM     11  C   UNL     1     -36.293   2.350  10.578  1.00  0.00    +0.194 C 
ATOM     12  C   UNL     1     -36.305   4.636   9.588  1.00  0.00    +0.034 A 
ATOM     13  O   UNL     1     -34.239   5.461   8.837  1.00  0.00    -0.289 OA
ATOM     14  O   UNL     1     -36.905   1.417  11.085  1.00  0.00    -0.289 OA
ATOM     15  C   UNL     1     -37.002   3.580  10.173  1.00  0.00    +0.034 A 
ATOM     16  C   UNL     1     -36.988   5.798   9.208  1.00  0.00    +0.013 A 
ATOM     17  C   UNL     1     -38.384   3.683  10.379  1.00  0.00    +0.013 A 
ATOM     18  C   UNL     1     -38.365   5.899   9.415  1.00  0.00    +0.001 A 
ATOM     19  C   UNL     1     -39.062   4.843  10.000  1.00  0.00    +0.001 A 
ENDBRANCH   1   4
TORSDOF 1
ENDMDL
MODEL 8
REMARK VINA RESULT:    -7.615      5.087      6.810
REMARK INTER + INTRA:          -7.838
REMARK INTER:                  -7.838
REMARK INTRA:                   0.000
REMARK UNBOUND:                 0.000
REMARK SMILES Nc1ccc2c(c1)C(=O)c1ccccc1C2=O
REMARK SMILES IDX 1 1 2 4 7 5 3 6 6 7 4 8 5 9 8 10 16 11 10 12 9 13 17 14
REMARK SMILES IDX 15 15 11 16 14 17 12 18 13 19
REMARK H PARENT 1 2 1 3
ROOT
ATOM      1  N   UNL     1     -31.516  10.520   6.182  1.00  0.00    -0.399 N 
ATOM      2  H   UNL     1     -30.987  10.667   5.328  1.00  0.00    +0.156 HD
ATOM      3  H   UNL     1     -31.379  11.268   6.855  1.00  0.00    +0.156 HD
ENDROOT
BRANCH   1   4
ATOM      4  C   UNL     1     -31.406   9.232   6.715  1.00  0.00    +0.032 A 
ATOM      5  C   UNL     1     -32.552   8.471   6.955  1.00  0.00    +0.038 A 
ATOM      6  C   UNL     1     -30.183   8.783   7.219  1.00  0.00    +0.026 A 
ATOM      7  C   UNL     1     -32.462   7.229   7.602  1.00  0.00    +0.036 A 
ATOM      8  C   UNL     1     -30.086   7.548   7.865  1.00  0.00    +0.015 A 
ATOM      9  C   UNL     1     -31.229   6.765   8.051  1.00  0.00    +0.034 A 
ATOM     10  C   UNL     1     -33.684   6.426   7.811  1.00  0.00    +0.194 C 
ATOM     11  C   UNL     1     -31.122   5.464   8.740  1.00  0.00    +0.194 C 
ATOM     12  C   UNL     1     -33.581   5.130   8.511  1.00  0.00    +0.034 A 
ATOM     13  O   UNL     1     -34.769   6.829   7.408  1.00  0.00    -0.289 OA
ATOM     14  O   UNL     1     -30.034   5.052   9.124  1.00  0.00    -0.289 OA
ATOM     15  C   UNL     1     -32.345   4.664   8.957  1.00  0.00    +0.034 A 
ATOM     16  C   UNL     1     -34.734   4.363   8.722  1.00  0.00    +0.013 A 
ATOM     17  C   UNL     1     -32.258   3.431   9.617  1.00  0.00    +0.013 A 
ATOM     18  C   UNL     1     -34.645   3.134   9.380  1.00  0.00    +0.001 A 
ATOM     19  C   UNL     1     -33.409   2.669   9.827  1.00  0.00    +0.001 A 
ENDBRANCH   1   4
TORSDOF 1
ENDMDL
