REMARK SMILES CCN(CC)C[C@@H](O)c1ccc2ccc3ccc(O)cc3c2c1
REMARK SMILES IDX 6 1 3 2 2 3 1 4 4 5 5 6 7 7 8 8 9 10 23 11 10 12 22 13 11 14
REMARK SMILES IDX 21 15 12 16 20 17 15 18 13 19 18 20 16 21 14 22 17 23 19 24
REMARK H PARENT 8 9 19 25
ROOT
ATOM      1  C   UNL     1      -2.336  -1.119  -0.680  1.00  0.00    +0.121 C 
ENDROOT
BRANCH   1   2
ATOM      2  N   UNL     1      -3.715  -0.641  -0.430  1.00  0.00    -0.301 NA
BRANCH   2   3
ATOM      3  C   UNL     1      -4.332  -1.248   0.752  1.00  0.00    +0.081 C 
ATOM      4  C   UNL     1      -5.839  -1.022   0.835  1.00  0.00    +0.021 C 
ENDBRANCH   2   3
BRANCH   2   5
ATOM      5  C   UNL     1      -3.887   0.805  -0.579  1.00  0.00    +0.081 C 
ATOM      6  C   UNL     1      -3.260   1.693   0.487  1.00  0.00    +0.021 C 
ENDBRANCH   2   5
ENDBRANCH   1   2
BRANCH   1   7
ATOM      7  C   UNL     1      -1.330  -1.176   0.507  1.00  0.00    +0.158 C 
BRANCH   7   8
ATOM      8  O   UNL     1      -1.598  -2.302   1.351  1.00  0.00    -0.387 OA
ATOM      9  H   UNL     1      -0.771  -2.516   1.817  1.00  0.00    +0.211 HD
ENDBRANCH   7   8
BRANCH   7  10
ATOM     10  C   UNL     1       0.106  -1.266   0.023  1.00  0.00    -0.018 A 
ATOM     11  C   UNL     1       0.995  -0.196   0.231  1.00  0.00    +0.015 A 
ATOM     12  C   UNL     1       0.570  -2.402  -0.640  1.00  0.00    +0.007 A 
ATOM     13  C   UNL     1       2.347  -0.222  -0.203  1.00  0.00    -0.010 A 
ATOM     14  C   UNL     1       1.890  -2.464  -1.081  1.00  0.00    +0.009 A 
ATOM     15  C   UNL     1       3.285   0.856  -0.005  1.00  0.00    -0.007 A 
ATOM     16  C   UNL     1       2.776  -1.396  -0.872  1.00  0.00    -0.018 A 
ATOM     17  C   UNL     1       2.974   2.077   0.649  1.00  0.00    +0.055 A 
ATOM     18  C   UNL     1       4.614   0.712  -0.487  1.00  0.00    -0.017 A 
ATOM     19  C   UNL     1       4.091  -1.499  -1.331  1.00  0.00    +0.009 A 
ATOM     20  C   UNL     1       3.926   3.084   0.810  1.00  0.00    +0.116 A 
ATOM     21  C   UNL     1       5.556   1.741  -0.314  1.00  0.00    +0.012 A 
ATOM     22  C   UNL     1       4.997  -0.460  -1.142  1.00  0.00    +0.009 A 
ATOM     23  C   UNL     1       5.214   2.924   0.333  1.00  0.00    +0.047 A 
BRANCH  20  24
ATOM     24  O   UNL     1       3.626   4.256   1.439  1.00  0.00    -0.508 OA
ATOM     25  H   UNL     1       2.697   4.233   1.721  1.00  0.00    +0.293 HD
ENDBRANCH  20  24
ENDBRANCH   7  10
ENDBRANCH   1   7
TORSDOF 7
