REMARK SMILES Oc1ccc2c(c1)c1ccccc1c1ncccc21
REMARK SMILES IDX 1 1 2 3 7 4 3 5 6 6 4 7 5 8 8 9 19 10 13 11 9 12 18 13 14 14
REMARK SMILES IDX 12 15 10 16 17 17 15 18 11 19 16 20
REMARK H PARENT 1 2
ROOT
ATOM      1  O   UNL     1      -3.989  -2.672  -0.218  1.00  0.00    -0.508 OA
ATOM      2  H   UNL     1      -3.526  -3.518  -0.326  1.00  0.00    +0.293 HD
ENDROOT
BRANCH   1   3
ATOM      3  C   UNL     1      -3.070  -1.671  -0.123  1.00  0.00    +0.116 A 
ATOM      4  C   UNL     1      -1.703  -1.922  -0.183  1.00  0.00    +0.055 A 
ATOM      5  C   UNL     1      -3.530  -0.386   0.035  1.00  0.00    +0.047 A 
ATOM      6  C   UNL     1      -0.734  -0.884  -0.085  1.00  0.00    -0.006 A 
ATOM      7  C   UNL     1      -2.609   0.654   0.135  1.00  0.00    +0.013 A 
ATOM      8  C   UNL     1      -1.202   0.448   0.079  1.00  0.00    -0.008 A 
ATOM      9  C   UNL     1       0.676  -1.134  -0.146  1.00  0.00    -0.008 A 
ATOM     10  C   UNL     1      -0.260   1.526   0.182  1.00  0.00    +0.009 A 
ATOM     11  C   UNL     1       1.582  -0.047  -0.041  1.00  0.00    +0.009 A 
ATOM     12  C   UNL     1       1.241  -2.431  -0.309  1.00  0.00    +0.009 A 
ATOM     13  C   UNL     1      -0.635   2.885   0.347  1.00  0.00    +0.012 A 
ATOM     14  C   UNL     1       1.128   1.272   0.121  1.00  0.00    +0.079 A 
ATOM     15  C   UNL     1       2.973  -0.309  -0.103  1.00  0.00    +0.011 A 
ATOM     16  C   UNL     1       2.618  -2.658  -0.366  1.00  0.00    +0.001 A 
ATOM     17  C   UNL     1       0.305   3.903   0.444  1.00  0.00    +0.021 A 
ATOM     18  N   UNL     1       2.037   2.277   0.217  1.00  0.00    -0.256 NA
ATOM     19  C   UNL     1       3.489  -1.592  -0.263  1.00  0.00    +0.001 A 
ATOM     20  C   UNL     1       1.626   3.549   0.373  1.00  0.00    +0.112 A 
ENDBRANCH   1   3
TORSDOF 1
