REMARK SMILES Brc1c2ccccc2cc2ccccc12
REMARK SMILES IDX 1 1 2 2 3 3 4 4 5 5 6 6 7 7 8 8 9 9 10 10 15 11 14 12 13 13
REMARK SMILES IDX 12 14 11 15
REMARK H PARENT
ROOT
ATOM      1 Br   UNL     1      -0.038   3.333  -0.327  1.00  0.00    -0.049 Br
ATOM      2  C   UNL     1      -0.016   1.415  -0.139  1.00  0.00    +0.033 A 
ATOM      3  C   UNL     1       1.242   0.747  -0.031  1.00  0.00    -0.004 A 
ATOM      4  C   UNL     1       2.514   1.381  -0.050  1.00  0.00    +0.010 A 
ATOM      5  C   UNL     1       3.706   0.661   0.061  1.00  0.00    +0.001 A 
ATOM      6  C   UNL     1       3.669  -0.718   0.194  1.00  0.00    +0.001 A 
ATOM      7  C   UNL     1       2.440  -1.372   0.217  1.00  0.00    +0.009 A 
ATOM      8  C   UNL     1       1.233  -0.659   0.106  1.00  0.00    -0.017 A 
ATOM      9  C   UNL     1       0.015  -1.351   0.133  1.00  0.00    +0.017 A 
ATOM     10  C   UNL     1      -1.218  -0.695   0.027  1.00  0.00    -0.017 A 
ATOM     11  C   UNL     1      -1.259   0.711  -0.112  1.00  0.00    -0.004 A 
ATOM     12  C   UNL     1      -2.544   1.308  -0.214  1.00  0.00    +0.010 A 
ATOM     13  C   UNL     1      -3.720   0.553  -0.180  1.00  0.00    +0.001 A 
ATOM     14  C   UNL     1      -3.651  -0.824  -0.043  1.00  0.00    +0.001 A 
ATOM     15  C   UNL     1      -2.408  -1.442   0.060  1.00  0.00    +0.009 A 
ENDROOT
TORSDOF 0
