REMARK SMILES Cc1ccc2c(c1)C(=O)c1ccccc1C2=O
REMARK SMILES IDX 1 1 2 2 7 3 6 4 5 5 4 6 3 7 16 8 17 9 15 10 10 11 11 12
REMARK SMILES IDX 12 13 13 14 14 15 8 16 9 17
REMARK H PARENT
ROOT
ATOM      1  C   UNL     1      -4.555   0.385  -0.286  1.00  0.00    +0.044 C 
ATOM      2  C   UNL     1      -3.140  -0.092  -0.132  1.00  0.00    -0.050 A 
ATOM      3  C   UNL     1      -2.069   0.784  -0.356  1.00  0.00    +0.016 A 
ATOM      4  C   UNL     1      -0.748   0.350  -0.182  1.00  0.00    +0.034 A 
ATOM      5  C   UNL     1      -0.493  -0.957   0.226  1.00  0.00    +0.034 A 
ATOM      6  C   UNL     1      -1.558  -1.833   0.465  1.00  0.00    +0.013 A 
ATOM      7  C   UNL     1      -2.874  -1.400   0.291  1.00  0.00    +0.004 A 
ATOM      8  C   UNL     1       0.895  -1.426   0.413  1.00  0.00    +0.194 C 
ATOM      9  O   UNL     1       1.119  -2.576   0.772  1.00  0.00    -0.289 OA
ATOM     10  C   UNL     1       2.010  -0.490   0.162  1.00  0.00    +0.034 A 
ATOM     11  C   UNL     1       1.755   0.818  -0.244  1.00  0.00    +0.034 A 
ATOM     12  C   UNL     1       2.820   1.697  -0.479  1.00  0.00    +0.013 A 
ATOM     13  C   UNL     1       4.136   1.263  -0.306  1.00  0.00    +0.001 A 
ATOM     14  C   UNL     1       4.391  -0.046   0.101  1.00  0.00    +0.001 A 
ATOM     15  C   UNL     1       3.331  -0.924   0.335  1.00  0.00    +0.013 A 
ATOM     16  C   UNL     1       0.367   1.287  -0.430  1.00  0.00    +0.194 C 
ATOM     17  O   UNL     1       0.143   2.438  -0.786  1.00  0.00    -0.289 OA
ENDROOT
TORSDOF 0
