REMARK SMILES Cn1c2ccccc2c(=O)c2ccccc21
REMARK SMILES IDX 1 1 2 2 3 3 8 4 7 5 6 6 5 7 4 8 9 9 10 10 11 11 16 12 15 13
REMARK SMILES IDX 14 14 13 15 12 16
REMARK H PARENT
ROOT
ATOM      1  C   UNL     1      -0.148   2.505  -0.013  1.00  0.00    +0.150 C 
ATOM      2  N   UNL     1      -0.062   1.043  -0.003  1.00  0.00    -0.343 N 
ATOM      3  C   UNL     1       1.215   0.438  -0.004  1.00  0.00    +0.052 A 
ATOM      4  C   UNL     1       1.330  -0.948  -0.222  1.00  0.00    +0.046 A 
ATOM      5  C   UNL     1       2.576  -1.594  -0.253  1.00  0.00    +0.014 A 
ATOM      6  C   UNL     1       3.741  -0.864  -0.046  1.00  0.00    +0.001 A 
ATOM      7  C   UNL     1       3.657   0.502   0.199  1.00  0.00    +0.002 A 
ATOM      8  C   UNL     1       2.411   1.142   0.224  1.00  0.00    +0.027 A 
ATOM      9  C   UNL     1       0.104  -1.753  -0.410  1.00  0.00    +0.197 A 
ATOM     10  O   UNL     1       0.175  -2.945  -0.693  1.00  0.00    -0.288 OA
ATOM     11  C   UNL     1      -1.209  -1.098  -0.223  1.00  0.00    +0.046 A 
ATOM     12  C   UNL     1      -1.258   0.291  -0.005  1.00  0.00    +0.052 A 
ATOM     13  C   UNL     1      -2.529   0.850   0.221  1.00  0.00    +0.027 A 
ATOM     14  C   UNL     1      -3.691   0.067   0.194  1.00  0.00    +0.002 A 
ATOM     15  C   UNL     1      -3.613  -1.300  -0.051  1.00  0.00    +0.001 A 
ATOM     16  C   UNL     1      -2.369  -1.887  -0.256  1.00  0.00    +0.014 A 
ENDROOT
TORSDOF 0
