REMARK SMILES O=C(Nc1ccc2c(O)cc(S(=O)(=O)O)cc2c1)Nc1ccc2c(O)cc(S(=O)(=O)O)cc2c1
REMARK SMILES IDX 3 1 2 2 1 3 19 4 4 7 8 8 7 9 10 10 6 11 17 12 11 13 5 14
REMARK SMILES IDX 18 15 16 16 9 17 12 19 13 20 14 21 15 22 20 24 34 25 21 26
REMARK SMILES IDX 33 27 22 28 23 29 32 30 24 31 27 32 26 33 25 34 28 36 29 37
REMARK SMILES IDX 30 38 31 39
REMARK H PARENT 3 5 19 6 9 18 15 23 25 35 31 40
ROOT
ATOM      1  N   UNL     1       1.151  -0.701   0.268  1.00  0.00    -0.308 N 
ATOM      2  C   UNL     1      -0.169  -0.386  -0.026  1.00  0.00    +0.323 C 
ATOM      3  O   UNL     1      -0.546   0.674  -0.505  1.00  0.00    -0.248 OA
ATOM      4  N   UNL     1      -0.999  -1.453   0.295  1.00  0.00    -0.308 N 
ATOM      5  H   UNL     1       1.295  -1.519   0.839  1.00  0.00    +0.171 HD
ATOM      6  H   UNL     1      -0.540  -2.330   0.481  1.00  0.00    +0.171 HD
ENDROOT
BRANCH   1   7
ATOM      7  C   UNL     1       2.300   0.077   0.006  1.00  0.00    +0.043 A 
ATOM      8  C   UNL     1       5.956   2.188  -0.631  1.00  0.00    +0.124 A 
ATOM      9  C   UNL     1       4.720   1.518  -0.446  1.00  0.00    +0.024 A 
ATOM     10  C   UNL     1       7.146   1.697  -0.099  1.00  0.00    +0.069 A 
ATOM     11  C   UNL     1       3.478   1.972  -0.943  1.00  0.00    +0.015 A 
ATOM     12  C   UNL     1       4.723   0.310   0.294  1.00  0.00    -0.011 A 
ATOM     13  C   UNL     1       7.123   0.508   0.620  1.00  0.00    +0.098 A 
ATOM     14  C   UNL     1       2.291   1.260  -0.724  1.00  0.00    +0.027 A 
ATOM     15  C   UNL     1       3.520  -0.391   0.506  1.00  0.00    +0.035 A 
ATOM     16  C   UNL     1       5.927  -0.187   0.817  1.00  0.00    +0.032 A 
BRANCH   8  17
ATOM     17  O   UNL     1       6.086   3.352  -1.341  1.00  0.00    -0.507 OA
ATOM     18  H   UNL     1       5.258   3.552  -1.800  1.00  0.00    +0.293 HD
ENDBRANCH   8  17
BRANCH  13  19
ATOM     19  S   UNL     1       8.617  -0.167   1.279  1.00  0.00    +0.294 S 
ATOM     20  O   UNL     1       9.742   0.523   0.686  1.00  0.00    -0.194 OA
ATOM     21  O   UNL     1       8.450  -0.285   2.710  1.00  0.00    -0.194 OA
BRANCH  19  22
ATOM     22  O   UNL     1       8.672  -1.655   0.660  1.00  0.00    -0.282 OA
ATOM     23  H   UNL     1       9.488  -1.713   0.118  1.00  0.00    +0.234 HD
ENDBRANCH  19  22
ENDBRANCH  13  19
ENDBRANCH   1   7
BRANCH   4  24
ATOM     24  C   UNL     1      -2.408  -1.500   0.215  1.00  0.00    +0.043 A 
ATOM     25  C   UNL     1      -3.215  -0.393  -0.050  1.00  0.00    +0.035 A 
ATOM     26  C   UNL     1      -3.019  -2.734   0.439  1.00  0.00    +0.027 A 
ATOM     27  C   UNL     1      -4.617  -0.505  -0.115  1.00  0.00    -0.011 A 
ATOM     28  C   UNL     1      -4.411  -2.865   0.376  1.00  0.00    +0.015 A 
ATOM     29  C   UNL     1      -5.241  -1.762   0.084  1.00  0.00    +0.024 A 
ATOM     30  C   UNL     1      -5.402   0.630  -0.371  1.00  0.00    +0.032 A 
ATOM     31  C   UNL     1      -6.653  -1.827  -0.004  1.00  0.00    +0.124 A 
ATOM     32  C   UNL     1      -6.794   0.527  -0.430  1.00  0.00    +0.098 A 
ATOM     33  C   UNL     1      -7.428  -0.696  -0.242  1.00  0.00    +0.069 A 
BRANCH  31  34
ATOM     34  O   UNL     1      -7.354  -2.995   0.132  1.00  0.00    -0.507 OA
ATOM     35  H   UNL     1      -6.775  -3.737  -0.101  1.00  0.00    +0.293 HD
ENDBRANCH  31  34
BRANCH  32  36
ATOM     36  S   UNL     1      -7.754   1.983  -0.716  1.00  0.00    +0.294 S 
ATOM     37  O   UNL     1      -9.071   1.783  -0.151  1.00  0.00    -0.194 OA
ATOM     38  O   UNL     1      -7.559   2.374  -2.093  1.00  0.00    -0.194 OA
BRANCH  36  39
ATOM     39  O   UNL     1      -7.072   3.104   0.223  1.00  0.00    -0.282 OA
ATOM     40  H   UNL     1      -7.772   3.454   0.815  1.00  0.00    +0.234 HD
ENDBRANCH  36  39
ENDBRANCH  32  36
ENDBRANCH   4  24
TORSDOF 8
