MODEL 1
REMARK VINA RESULT:    -9.926      0.000      0.000
REMARK INTER + INTRA:         -12.356
REMARK INTER:                 -11.667
REMARK INTRA:                  -0.689
REMARK UNBOUND:                -0.689
REMARK SMILES Cc1nc(Nc2ccccc2Cl)c2cnn(-c3ccccc3Cl)c2n1
REMARK SMILES IDX 1 1 2 2 3 3 4 4 13 5 14 6 15 7 16 8 24 9 25 10 5 11 6 13
REMARK SMILES IDX 11 14 7 15 10 16 8 17 9 18 12 19 17 20 22 21 18 22 21 23
REMARK SMILES IDX 19 24 20 25 23 26
REMARK H PARENT 5 12
ROOT
ATOM      1  C   UNL     1     -34.419   6.548   4.688  1.00  0.00    +0.090 C 
ATOM      2  C   UNL     1     -33.674   6.420   5.981  1.00  0.00    +0.130 A 
ATOM      3  N   UNL     1     -32.490   7.063   6.072  1.00  0.00    -0.215 NA
ATOM      4  C   UNL     1     -31.778   6.997   7.222  1.00  0.00    +0.145 A 
ATOM      5  C   UNL     1     -32.319   6.269   8.288  1.00  0.00    +0.082 A 
ATOM      6  C   UNL     1     -31.947   5.875   9.583  1.00  0.00    +0.150 A 
ATOM      7  N   UNL     1     -32.855   5.101  10.180  1.00  0.00    -0.174 NA
ATOM      8  N   UNL     1     -33.907   5.085   9.304  1.00  0.00    -0.213 N 
ATOM      9  C   UNL     1     -33.568   5.701   8.103  1.00  0.00    +0.168 A 
ATOM     10  N   UNL     1     -34.269   5.713   6.953  1.00  0.00    -0.213 NA
ENDROOT
BRANCH   4  11
ATOM     11  N   UNL     1     -30.538   7.673   7.213  1.00  0.00    -0.338 N 
ATOM     12  H   UNL     1     -30.085   7.288   6.381  1.00  0.00    +0.168 HD
BRANCH  11  13
ATOM     13  C   UNL     1     -30.404   9.083   7.226  1.00  0.00    +0.058 A 
ATOM     14  C   UNL     1     -29.235   9.745   6.811  1.00  0.00    +0.064 A 
ATOM     15  C   UNL     1     -31.505   9.853   7.630  1.00  0.00    +0.027 A 
ATOM     16  C   UNL     1     -29.173  11.141   6.803  1.00  0.00    +0.023 A 
ATOM     17  C   UNL     1     -31.441  11.247   7.623  1.00  0.00    +0.002 A 
ATOM     18  C   UNL     1     -30.277  11.891   7.208  1.00  0.00    +0.002 A 
ATOM     19 Cl   UNL     1     -27.834   8.863   6.315  1.00  0.00    -0.082 Cl
ENDBRANCH  11  13
ENDBRANCH   4  11
BRANCH   8  20
ATOM     20  C   UNL     1     -35.102   4.403   9.664  1.00  0.00    +0.086 A 
ATOM     21  C   UNL     1     -35.203   3.009   9.764  1.00  0.00    +0.066 A 
ATOM     22  C   UNL     1     -36.242   5.193   9.917  1.00  0.00    +0.030 A 
ATOM     23  C   UNL     1     -36.410   2.433  10.192  1.00  0.00    +0.023 A 
ATOM     24  C   UNL     1     -37.438   4.608  10.338  1.00  0.00    +0.002 A 
ATOM     25  C   UNL     1     -37.517   3.228  10.489  1.00  0.00    +0.002 A 
ATOM     26 Cl   UNL     1     -34.011   1.893   9.192  1.00  0.00    -0.082 Cl
ENDBRANCH   8  20
TORSDOF 3
ENDMDL
MODEL 2
REMARK VINA RESULT:    -9.690      3.848      6.233
REMARK INTER + INTRA:         -12.079
REMARK INTER:                 -11.176
REMARK INTRA:                  -0.903
REMARK UNBOUND:                -0.689
REMARK SMILES Cc1nc(Nc2ccccc2Cl)c2cnn(-c3ccccc3Cl)c2n1
REMARK SMILES IDX 1 1 2 2 3 3 4 4 13 5 14 6 15 7 16 8 24 9 25 10 5 11 6 13
REMARK SMILES IDX 11 14 7 15 10 16 8 17 9 18 12 19 17 20 22 21 18 22 21 23
REMARK SMILES IDX 19 24 20 25 23 26
REMARK H PARENT 5 12
ROOT
ATOM      1  C   UNL     1     -30.983   6.293   8.441  1.00  0.00    +0.090 C 
ATOM      2  C   UNL     1     -31.579   5.038   8.999  1.00  0.00    +0.130 A 
ATOM      3  N   UNL     1     -30.733   4.016   9.247  1.00  0.00    -0.215 NA
ATOM      4  C   UNL     1     -31.211   2.860   9.767  1.00  0.00    +0.145 A 
ATOM      5  C   UNL     1     -32.580   2.783  10.046  1.00  0.00    +0.082 A 
ATOM      6  C   UNL     1     -33.505   1.829  10.499  1.00  0.00    +0.150 A 
ATOM      7  N   UNL     1     -34.759   2.283  10.531  1.00  0.00    -0.174 NA
ATOM      8  N   UNL     1     -34.642   3.609  10.208  1.00  0.00    -0.213 N 
ATOM      9  C   UNL     1     -33.344   3.913   9.807  1.00  0.00    +0.168 A 
ATOM     10  N   UNL     1     -32.898   5.053   9.246  1.00  0.00    -0.213 NA
ENDROOT
BRANCH   4  11
ATOM     11  N   UNL     1     -30.257   1.836   9.962  1.00  0.00    -0.338 N 
ATOM     12  H   UNL     1     -29.585   2.018   9.212  1.00  0.00    +0.168 HD
BRANCH  11  13
ATOM     13  C   UNL     1     -29.571   1.614  11.181  1.00  0.00    +0.058 A 
ATOM     14  C   UNL     1     -28.267   2.083  11.422  1.00  0.00    +0.064 A 
ATOM     15  C   UNL     1     -30.242   0.936  12.209  1.00  0.00    +0.027 A 
ATOM     16  C   UNL     1     -27.654   1.874  12.660  1.00  0.00    +0.023 A 
ATOM     17  C   UNL     1     -29.628   0.726  13.445  1.00  0.00    +0.002 A 
ATOM     18  C   UNL     1     -28.336   1.197  13.671  1.00  0.00    +0.002 A 
ATOM     19 Cl   UNL     1     -27.373   2.914  10.198  1.00  0.00    -0.082 Cl
ENDBRANCH  11  13
ENDBRANCH   4  11
BRANCH   8  20
ATOM     20  C   UNL     1     -35.799   4.433  10.222  1.00  0.00    +0.086 A 
ATOM     21  C   UNL     1     -36.844   4.328   9.293  1.00  0.00    +0.066 A 
ATOM     22  C   UNL     1     -35.876   5.417  11.229  1.00  0.00    +0.030 A 
ATOM     23  C   UNL     1     -37.977   5.144   9.431  1.00  0.00    +0.023 A 
ATOM     24  C   UNL     1     -37.007   6.226  11.354  1.00  0.00    +0.002 A 
ATOM     25  C   UNL     1     -38.064   6.079  10.463  1.00  0.00    +0.002 A 
ATOM     26 Cl   UNL     1     -36.768   3.406   7.830  1.00  0.00    -0.082 Cl
ENDBRANCH   8  20
TORSDOF 3
ENDMDL
MODEL 3
REMARK VINA RESULT:    -8.857      7.982     11.580
REMARK INTER + INTRA:         -11.099
REMARK INTER:                 -10.110
REMARK INTRA:                  -0.989
REMARK UNBOUND:                -0.689
REMARK SMILES Cc1nc(Nc2ccccc2Cl)c2cnn(-c3ccccc3Cl)c2n1
REMARK SMILES IDX 1 1 2 2 3 3 4 4 13 5 14 6 15 7 16 8 24 9 25 10 5 11 6 13
REMARK SMILES IDX 11 14 7 15 10 16 8 17 9 18 12 19 17 20 22 21 18 22 21 23
REMARK SMILES IDX 19 24 20 25 23 26
REMARK H PARENT 5 12
ROOT
ATOM      1  C   UNL     1     -25.571  -1.991   8.819  1.00  0.00    +0.090 C 
ATOM      2  C   UNL     1     -26.146  -1.197   9.952  1.00  0.00    +0.130 A 
ATOM      3  N   UNL     1     -26.479  -1.878  11.070  1.00  0.00    -0.215 NA
ATOM      4  C   UNL     1     -26.988  -1.212  12.134  1.00  0.00    +0.145 A 
ATOM      5  C   UNL     1     -27.131   0.176  12.032  1.00  0.00    +0.082 A 
ATOM      6  C   UNL     1     -27.645   1.236  12.796  1.00  0.00    +0.150 A 
ATOM      7  N   UNL     1     -27.581   2.414  12.174  1.00  0.00    -0.174 NA
ATOM      8  N   UNL     1     -26.894   2.146  11.020  1.00  0.00    -0.213 N 
ATOM      9  C   UNL     1     -26.700   0.777  10.860  1.00  0.00    +0.168 A 
ATOM     10  N   UNL     1     -26.238   0.129   9.774  1.00  0.00    -0.213 NA
ENDROOT
BRANCH   4  11
ATOM     11  N   UNL     1     -27.337  -2.011  13.245  1.00  0.00    -0.338 N 
ATOM     12  H   UNL     1     -26.866  -1.532  14.016  1.00  0.00    +0.168 HD
BRANCH  11  13
ATOM     13  C   UNL     1     -28.670  -2.318  13.611  1.00  0.00    +0.058 A 
ATOM     14  C   UNL     1     -29.323  -1.716  14.701  1.00  0.00    +0.064 A 
ATOM     15  C   UNL     1     -29.384  -3.232  12.821  1.00  0.00    +0.027 A 
ATOM     16  C   UNL     1     -30.655  -2.024  14.991  1.00  0.00    +0.023 A 
ATOM     17  C   UNL     1     -30.714  -3.540  13.113  1.00  0.00    +0.002 A 
ATOM     18  C   UNL     1     -31.350  -2.935  14.195  1.00  0.00    +0.002 A 
ATOM     19 Cl   UNL     1     -28.503  -0.593  15.727  1.00  0.00    -0.082 Cl
ENDBRANCH  11  13
ENDBRANCH   4  11
BRANCH   8  20
ATOM     20  C   UNL     1     -26.573   3.213  10.137  1.00  0.00    +0.086 A 
ATOM     21  C   UNL     1     -25.290   3.763  10.012  1.00  0.00    +0.066 A 
ATOM     22  C   UNL     1     -27.624   3.744   9.360  1.00  0.00    +0.030 A 
ATOM     23  C   UNL     1     -25.059   4.770   9.063  1.00  0.00    +0.023 A 
ATOM     24  C   UNL     1     -27.382   4.749   8.422  1.00  0.00    +0.002 A 
ATOM     25  C   UNL     1     -26.096   5.252   8.264  1.00  0.00    +0.002 A 
ATOM     26 Cl   UNL     1     -23.978   3.451  11.096  1.00  0.00    -0.082 Cl
ENDBRANCH   8  20
TORSDOF 3
ENDMDL
MODEL 4
REMARK VINA RESULT:    -8.584      2.370      3.115
REMARK INTER + INTRA:         -10.778
REMARK INTER:                 -10.891
REMARK INTRA:                   0.113
REMARK UNBOUND:                -0.689
REMARK SMILES Cc1nc(Nc2ccccc2Cl)c2cnn(-c3ccccc3Cl)c2n1
REMARK SMILES IDX 1 1 2 2 3 3 4 4 13 5 14 6 15 7 16 8 24 9 25 10 5 11 6 13
REMARK SMILES IDX 11 14 7 15 10 16 8 17 9 18 12 19 17 20 22 21 18 22 21 23
REMARK SMILES IDX 19 24 20 25 23 26
REMARK H PARENT 5 12
ROOT
ATOM      1  C   UNL     1     -32.180   9.025   6.858  1.00  0.00    +0.090 C 
ATOM      2  C   UNL     1     -31.653   7.779   7.501  1.00  0.00    +0.130 A 
ATOM      3  N   UNL     1     -30.323   7.717   7.719  1.00  0.00    -0.215 NA
ATOM      4  C   UNL     1     -29.790   6.622   8.312  1.00  0.00    +0.145 A 
ATOM      5  C   UNL     1     -30.660   5.595   8.695  1.00  0.00    +0.082 A 
ATOM      6  C   UNL     1     -30.581   4.308   9.249  1.00  0.00    +0.150 A 
ATOM      7  N   UNL     1     -31.767   3.708   9.360  1.00  0.00    -0.174 NA
ATOM      8  N   UNL     1     -32.665   4.671   8.984  1.00  0.00    -0.213 N 
ATOM      9  C   UNL     1     -32.013   5.792   8.477  1.00  0.00    +0.168 A 
ATOM     10  N   UNL     1     -32.557   6.849   7.846  1.00  0.00    -0.213 NA
ENDROOT
BRANCH   4  11
ATOM     11  N   UNL     1     -28.386   6.634   8.469  1.00  0.00    -0.338 N 
ATOM     12  H   UNL     1     -28.137   5.659   8.286  1.00  0.00    +0.168 HD
BRANCH  11  13
ATOM     13  C   UNL     1     -27.517   7.496   7.756  1.00  0.00    +0.058 A 
ATOM     14  C   UNL     1     -26.273   7.079   7.248  1.00  0.00    +0.064 A 
ATOM     15  C   UNL     1     -27.938   8.810   7.509  1.00  0.00    +0.027 A 
ATOM     16  C   UNL     1     -25.475   7.959   6.513  1.00  0.00    +0.023 A 
ATOM     17  C   UNL     1     -27.138   9.690   6.776  1.00  0.00    +0.002 A 
ATOM     18  C   UNL     1     -25.909   9.263   6.276  1.00  0.00    +0.002 A 
ATOM     19 Cl   UNL     1     -25.682   5.479   7.526  1.00  0.00    -0.082 Cl
ENDBRANCH  11  13
ENDBRANCH   4  11
BRANCH   8  20
ATOM     20  C   UNL     1     -34.056   4.392   9.058  1.00  0.00    +0.086 A 
ATOM     21  C   UNL     1     -34.849   4.668  10.181  1.00  0.00    +0.066 A 
ATOM     22  C   UNL     1     -34.653   3.791   7.930  1.00  0.00    +0.030 A 
ATOM     23  C   UNL     1     -36.229   4.417  10.131  1.00  0.00    +0.023 A 
ATOM     24  C   UNL     1     -36.026   3.542   7.895  1.00  0.00    +0.002 A 
ATOM     25  C   UNL     1     -36.816   3.869   8.991  1.00  0.00    +0.002 A 
ATOM     26 Cl   UNL     1     -34.231   5.105  11.737  1.00  0.00    -0.082 Cl
ENDBRANCH   8  20
TORSDOF 3
ENDMDL
MODEL 5
REMARK VINA RESULT:    -8.037      7.994     12.037
REMARK INTER + INTRA:         -10.135
REMARK INTER:                  -9.391
REMARK INTRA:                  -0.744
REMARK UNBOUND:                -0.689
REMARK SMILES Cc1nc(Nc2ccccc2Cl)c2cnn(-c3ccccc3Cl)c2n1
REMARK SMILES IDX 1 1 2 2 3 3 4 4 13 5 14 6 15 7 16 8 24 9 25 10 5 11 6 13
REMARK SMILES IDX 11 14 7 15 10 16 8 17 9 18 12 19 17 20 22 21 18 22 21 23
REMARK SMILES IDX 19 24 20 25 23 26
REMARK H PARENT 5 12
ROOT
ATOM      1  C   UNL     1     -25.807  -2.855  10.277  1.00  0.00    +0.090 C 
ATOM      2  C   UNL     1     -26.679  -1.936  11.077  1.00  0.00    +0.130 A 
ATOM      3  N   UNL     1     -27.574  -2.510  11.908  1.00  0.00    -0.215 NA
ATOM      4  C   UNL     1     -28.379  -1.730  12.669  1.00  0.00    +0.145 A 
ATOM      5  C   UNL     1     -28.230  -0.342  12.572  1.00  0.00    +0.082 A 
ATOM      6  C   UNL     1     -28.843   0.815  13.078  1.00  0.00    +0.150 A 
ATOM      7  N   UNL     1     -28.319   1.943  12.595  1.00  0.00    -0.174 NA
ATOM      8  N   UNL     1     -27.252   1.522  11.847  1.00  0.00    -0.213 N 
ATOM      9  C   UNL     1     -27.238   0.135  11.732  1.00  0.00    +0.168 A 
ATOM     10  N   UNL     1     -26.462  -0.620  10.931  1.00  0.00    -0.213 NA
ENDROOT
BRANCH   4  11
ATOM     11  N   UNL     1     -29.306  -2.419  13.482  1.00  0.00    -0.338 N 
ATOM     12  H   UNL     1     -29.541  -1.718  14.188  1.00  0.00    +0.168 HD
BRANCH  11  13
ATOM     13  C   UNL     1     -30.488  -3.027  12.994  1.00  0.00    +0.058 A 
ATOM     14  C   UNL     1     -30.895  -4.321  13.369  1.00  0.00    +0.064 A 
ATOM     15  C   UNL     1     -31.312  -2.288  12.133  1.00  0.00    +0.027 A 
ATOM     16  C   UNL     1     -32.093  -4.856  12.892  1.00  0.00    +0.023 A 
ATOM     17  C   UNL     1     -32.509  -2.824  11.655  1.00  0.00    +0.002 A 
ATOM     18  C   UNL     1     -32.901  -4.106  12.037  1.00  0.00    +0.002 A 
ATOM     19 Cl   UNL     1     -29.924  -5.297  14.414  1.00  0.00    -0.082 Cl
ENDBRANCH  11  13
ENDBRANCH   4  11
BRANCH   8  20
ATOM     20  C   UNL     1     -26.405   2.488  11.238  1.00  0.00    +0.086 A 
ATOM     21  C   UNL     1     -26.851   3.446  10.318  1.00  0.00    +0.066 A 
ATOM     22  C   UNL     1     -25.038   2.454  11.583  1.00  0.00    +0.030 A 
ATOM     23  C   UNL     1     -25.949   4.400   9.822  1.00  0.00    +0.023 A 
ATOM     24  C   UNL     1     -24.150   3.406  11.080  1.00  0.00    +0.002 A 
ATOM     25  C   UNL     1     -24.609   4.388  10.210  1.00  0.00    +0.002 A 
ATOM     26 Cl   UNL     1     -28.405   3.430   9.556  1.00  0.00    -0.082 Cl
ENDBRANCH   8  20
TORSDOF 3
ENDMDL
MODEL 6
REMARK VINA RESULT:    -7.670      7.343     11.193
REMARK INTER + INTRA:          -9.704
REMARK INTER:                  -9.895
REMARK INTRA:                   0.191
REMARK UNBOUND:                -0.689
REMARK SMILES Cc1nc(Nc2ccccc2Cl)c2cnn(-c3ccccc3Cl)c2n1
REMARK SMILES IDX 1 1 2 2 3 3 4 4 13 5 14 6 15 7 16 8 24 9 25 10 5 11 6 13
REMARK SMILES IDX 11 14 7 15 10 16 8 17 9 18 12 19 17 20 22 21 18 22 21 23
REMARK SMILES IDX 19 24 20 25 23 26
REMARK H PARENT 5 12
ROOT
ATOM      1  C   UNL     1     -31.728   1.718  10.742  1.00  0.00    +0.090 C 
ATOM      2  C   UNL     1     -30.345   1.224  11.039  1.00  0.00    +0.130 A 
ATOM      3  N   UNL     1     -30.241   0.011  11.622  1.00  0.00    -0.215 NA
ATOM      4  C   UNL     1     -29.017  -0.497  11.900  1.00  0.00    +0.145 A 
ATOM      5  C   UNL     1     -27.896   0.263  11.547  1.00  0.00    +0.082 A 
ATOM      6  C   UNL     1     -26.500   0.198  11.685  1.00  0.00    +0.150 A 
ATOM      7  N   UNL     1     -25.872   1.268  11.195  1.00  0.00    -0.174 NA
ATOM      8  N   UNL     1     -26.868   2.002  10.609  1.00  0.00    -0.213 N 
ATOM      9  C   UNL     1     -28.120   1.466  10.899  1.00  0.00    +0.168 A 
ATOM     10  N   UNL     1     -29.328   2.010  10.658  1.00  0.00    -0.213 NA
ENDROOT
BRANCH   4  11
ATOM     11  N   UNL     1     -29.008  -1.756  12.540  1.00  0.00    -0.338 N 
ATOM     12  H   UNL     1     -28.028  -2.037  12.457  1.00  0.00    +0.168 HD
BRANCH  11  13
ATOM     13  C   UNL     1     -29.463  -1.975  13.863  1.00  0.00    +0.058 A 
ATOM     14  C   UNL     1     -30.224  -3.098  14.236  1.00  0.00    +0.064 A 
ATOM     15  C   UNL     1     -29.098  -1.052  14.854  1.00  0.00    +0.027 A 
ATOM     16  C   UNL     1     -30.608  -3.287  15.565  1.00  0.00    +0.023 A 
ATOM     17  C   UNL     1     -29.485  -1.241  16.183  1.00  0.00    +0.002 A 
ATOM     18  C   UNL     1     -30.237  -2.359  16.538  1.00  0.00    +0.002 A 
ATOM     19 Cl   UNL     1     -30.722  -4.269  13.067  1.00  0.00    -0.082 Cl
ENDBRANCH  11  13
ENDBRANCH   4  11
BRANCH   8  20
ATOM     20  C   UNL     1     -26.536   3.193   9.910  1.00  0.00    +0.086 A 
ATOM     21  C   UNL     1     -25.287   3.825   9.995  1.00  0.00    +0.066 A 
ATOM     22  C   UNL     1     -27.538   3.765   9.099  1.00  0.00    +0.030 A 
ATOM     23  C   UNL     1     -25.034   4.962   9.212  1.00  0.00    +0.023 A 
ATOM     24  C   UNL     1     -27.275   4.898   8.328  1.00  0.00    +0.002 A 
ATOM     25  C   UNL     1     -26.017   5.489   8.374  1.00  0.00    +0.002 A 
ATOM     26 Cl   UNL     1     -24.071   3.444  11.165  1.00  0.00    -0.082 Cl
ENDBRANCH   8  20
TORSDOF 3
ENDMDL
MODEL 7
REMARK VINA RESULT:    -7.580      7.462     11.590
REMARK INTER + INTRA:          -9.598
REMARK INTER:                  -9.173
REMARK INTRA:                  -0.425
REMARK UNBOUND:                -0.689
REMARK SMILES Cc1nc(Nc2ccccc2Cl)c2cnn(-c3ccccc3Cl)c2n1
REMARK SMILES IDX 1 1 2 2 3 3 4 4 13 5 14 6 15 7 16 8 24 9 25 10 5 11 6 13
REMARK SMILES IDX 11 14 7 15 10 16 8 17 9 18 12 19 17 20 22 21 18 22 21 23
REMARK SMILES IDX 19 24 20 25 23 26
REMARK H PARENT 5 12
ROOT
ATOM      1  C   UNL     1     -31.999   2.085  10.414  1.00  0.00    +0.090 C 
ATOM      2  C   UNL     1     -31.017   1.062  10.897  1.00  0.00    +0.130 A 
ATOM      3  N   UNL     1     -31.491  -0.180  11.128  1.00  0.00    -0.215 NA
ATOM      4  C   UNL     1     -30.647  -1.152  11.550  1.00  0.00    +0.145 A 
ATOM      5  C   UNL     1     -29.297  -0.824  11.713  1.00  0.00    +0.082 A 
ATOM      6  C   UNL     1     -28.118  -1.434  12.171  1.00  0.00    +0.150 A 
ATOM      7  N   UNL     1     -27.066  -0.614  12.169  1.00  0.00    -0.174 NA
ATOM      8  N   UNL     1     -27.534   0.530  11.581  1.00  0.00    -0.213 N 
ATOM      9  C   UNL     1     -28.911   0.466  11.389  1.00  0.00    +0.168 A 
ATOM     10  N   UNL     1     -29.741   1.459  11.015  1.00  0.00    -0.213 NA
ENDROOT
BRANCH   4  11
ATOM     11  N   UNL     1     -31.240  -2.411  11.798  1.00  0.00    -0.338 N 
ATOM     12  H   UNL     1     -30.649  -3.042  11.251  1.00  0.00    +0.168 HD
BRANCH  11  13
ATOM     13  C   UNL     1     -31.450  -2.946  13.092  1.00  0.00    +0.058 A 
ATOM     14  C   UNL     1     -32.217  -4.102  13.327  1.00  0.00    +0.064 A 
ATOM     15  C   UNL     1     -30.827  -2.320  14.182  1.00  0.00    +0.027 A 
ATOM     16  C   UNL     1     -32.355  -4.612  14.620  1.00  0.00    +0.023 A 
ATOM     17  C   UNL     1     -30.967  -2.830  15.473  1.00  0.00    +0.002 A 
ATOM     18  C   UNL     1     -31.728  -3.977  15.692  1.00  0.00    +0.002 A 
ATOM     19 Cl   UNL     1     -33.026  -4.917  12.036  1.00  0.00    -0.082 Cl
ENDBRANCH  11  13
ENDBRANCH   4  11
BRANCH   8  20
ATOM     20  C   UNL     1     -26.639   1.609  11.345  1.00  0.00    +0.086 A 
ATOM     21  C   UNL     1     -25.641   1.593  10.360  1.00  0.00    +0.066 A 
ATOM     22  C   UNL     1     -26.769   2.746  12.169  1.00  0.00    +0.030 A 
ATOM     23  C   UNL     1     -24.850   2.734  10.160  1.00  0.00    +0.023 A 
ATOM     24  C   UNL     1     -25.973   3.873  11.962  1.00  0.00    +0.002 A 
ATOM     25  C   UNL     1     -25.022   3.873  10.948  1.00  0.00    +0.002 A 
ATOM     26 Cl   UNL     1     -25.144   0.184   9.487  1.00  0.00    -0.082 Cl
ENDBRANCH   8  20
TORSDOF 3
ENDMDL
MODEL 8
REMARK VINA RESULT:    -7.167      2.481      3.207
REMARK INTER + INTRA:          -9.113
REMARK INTER:                  -8.676
REMARK INTRA:                  -0.437
REMARK UNBOUND:                -0.689
REMARK SMILES Cc1nc(Nc2ccccc2Cl)c2cnn(-c3ccccc3Cl)c2n1
REMARK SMILES IDX 1 1 2 2 3 3 4 4 13 5 14 6 15 7 16 8 24 9 25 10 5 11 6 13
REMARK SMILES IDX 11 14 7 15 10 16 8 17 9 18 12 19 17 20 22 21 18 22 21 23
REMARK SMILES IDX 19 24 20 25 23 26
REMARK H PARENT 5 12
ROOT
ATOM      1  C   UNL     1     -32.216   8.498   5.727  1.00  0.00    +0.090 C 
ATOM      2  C   UNL     1     -31.931   7.542   6.844  1.00  0.00    +0.130 A 
ATOM      3  N   UNL     1     -30.701   7.597   7.398  1.00  0.00    -0.215 NA
ATOM      4  C   UNL     1     -30.389   6.768   8.423  1.00  0.00    +0.145 A 
ATOM      5  C   UNL     1     -31.378   5.891   8.881  1.00  0.00    +0.082 A 
ATOM      6  C   UNL     1     -31.505   4.852   9.817  1.00  0.00    +0.150 A 
ATOM      7  N   UNL     1     -32.711   4.281   9.810  1.00  0.00    -0.174 NA
ATOM      8  N   UNL     1     -33.437   5.044   8.934  1.00  0.00    -0.213 N 
ATOM      9  C   UNL     1     -32.623   5.963   8.278  1.00  0.00    +0.168 A 
ATOM     10  N   UNL     1     -32.938   6.743   7.228  1.00  0.00    -0.213 NA
ENDROOT
BRANCH   4  11
ATOM     11  N   UNL     1     -29.069   6.875   8.915  1.00  0.00    -0.338 N 
ATOM     12  H   UNL     1     -29.042   6.142   9.628  1.00  0.00    +0.168 HD
BRANCH  11  13
ATOM     13  C   UNL     1     -27.912   6.800   8.102  1.00  0.00    +0.058 A 
ATOM     14  C   UNL     1     -27.429   7.889   7.355  1.00  0.00    +0.064 A 
ATOM     15  C   UNL     1     -27.192   5.596   8.077  1.00  0.00    +0.027 A 
ATOM     16  C   UNL     1     -26.257   7.773   6.604  1.00  0.00    +0.023 A 
ATOM     17  C   UNL     1     -26.021   5.481   7.325  1.00  0.00    +0.002 A 
ATOM     18  C   UNL     1     -25.553   6.569   6.591  1.00  0.00    +0.002 A 
ATOM     19 Cl   UNL     1     -28.272   9.398   7.325  1.00  0.00    -0.082 Cl
ENDBRANCH  11  13
ENDBRANCH   4  11
BRANCH   8  20
ATOM     20  C   UNL     1     -34.815   4.758   8.740  1.00  0.00    +0.086 A 
ATOM     21  C   UNL     1     -35.299   3.869   7.770  1.00  0.00    +0.066 A 
ATOM     22  C   UNL     1     -35.735   5.428   9.574  1.00  0.00    +0.030 A 
ATOM     23  C   UNL     1     -36.675   3.603   7.701  1.00  0.00    +0.023 A 
ATOM     24  C   UNL     1     -37.102   5.158   9.493  1.00  0.00    +0.002 A 
ATOM     25  C   UNL     1     -37.570   4.234   8.566  1.00  0.00    +0.002 A 
ATOM     26 Cl   UNL     1     -34.352   3.214   6.478  1.00  0.00    -0.082 Cl
ENDBRANCH   8  20
TORSDOF 3
ENDMDL
