REMARK SMILES O=S(=O)(O)c1cc(O)c2ccc(Nc3ccccc3)cc2c1
REMARK SMILES IDX 7 1 9 2 10 3 11 4 12 5 20 6 21 7 22 8 5 9 6 10 8 11 2 13
REMARK SMILES IDX 1 14 3 15 4 16 13 18 14 20 15 21 19 22 16 23 18 24 17 25
REMARK H PARENT 8 12 4 17 13 19
ROOT
ATOM      1  C   UNL     1       3.363  -0.977   1.223  1.00  0.00    +0.124 A 
ATOM      2  C   UNL     1       2.002  -1.181   0.889  1.00  0.00    +0.024 A 
ATOM      3  C   UNL     1       1.285  -2.368   1.155  1.00  0.00    +0.015 A 
ATOM      4  C   UNL     1      -0.063  -2.499   0.803  1.00  0.00    +0.027 A 
ATOM      5  C   UNL     1      -0.748  -1.462   0.165  1.00  0.00    +0.039 A 
ATOM      6  C   UNL     1      -0.043  -0.286  -0.110  1.00  0.00    +0.035 A 
ATOM      7  C   UNL     1       1.314  -0.133   0.230  1.00  0.00    -0.011 A 
ATOM      8  C   UNL     1       1.990   1.055  -0.090  1.00  0.00    +0.032 A 
ATOM      9  C   UNL     1       3.338   1.209   0.241  1.00  0.00    +0.098 A 
ATOM     10  C   UNL     1       4.034   0.198   0.892  1.00  0.00    +0.069 A 
ENDROOT
BRANCH   1  11
ATOM     11  O   UNL     1       4.115  -1.905   1.893  1.00  0.00    -0.507 OA
ATOM     12  H   UNL     1       3.522  -2.497   2.381  1.00  0.00    +0.293 HD
ENDBRANCH   1  11
BRANCH   9  13
ATOM     13  S   UNL     1       4.169   2.703  -0.206  1.00  0.00    +0.294 S 
ATOM     14  O   UNL     1       3.678   3.752   0.656  1.00  0.00    -0.194 OA
ATOM     15  O   UNL     1       5.581   2.418  -0.348  1.00  0.00    -0.194 OA
BRANCH  13  16
ATOM     16  O   UNL     1       3.662   3.011  -1.707  1.00  0.00    -0.282 OA
ATOM     17  H   UNL     1       4.456   3.030  -2.283  1.00  0.00    +0.234 HD
ENDBRANCH  13  16
ENDBRANCH   9  13
BRANCH   5  18
ATOM     18  N   UNL     1      -2.112  -1.623  -0.128  1.00  0.00    -0.356 N 
ATOM     19  H   UNL     1      -2.402  -2.587  -0.249  1.00  0.00    +0.167 HD
BRANCH  18  20
ATOM     20  C   UNL     1      -3.160  -0.696  -0.263  1.00  0.00    +0.038 A 
ATOM     21  C   UNL     1      -3.144   0.567   0.340  1.00  0.00    +0.026 A 
ATOM     22  C   UNL     1      -4.252  -1.022  -1.080  1.00  0.00    +0.026 A 
ATOM     23  C   UNL     1      -4.192   1.473   0.146  1.00  0.00    +0.002 A 
ATOM     24  C   UNL     1      -5.301  -0.119  -1.279  1.00  0.00    +0.002 A 
ATOM     25  C   UNL     1      -5.270   1.130  -0.665  1.00  0.00    +0.000 A 
ENDBRANCH  18  20
ENDBRANCH   5  18
TORSDOF 5
