MODEL 1
REMARK VINA RESULT:    -9.939      0.000      0.000
REMARK INTER + INTRA:         -10.928
REMARK INTER:                 -10.811
REMARK INTRA:                  -0.117
REMARK UNBOUND:                -0.117
REMARK SMILES O=S(=O)(O)c1ccc2ccc3ccccc3c2c1
REMARK SMILES IDX 2 1 1 2 3 3 4 4 5 6 18 7 6 8 17 9 7 10 16 11 8 12 15 13
REMARK SMILES IDX 11 14 9 15 14 16 12 17 10 18 13 19
REMARK H PARENT 4 5
ROOT
ATOM      1  S   UNL     1     -26.978   4.471   8.994  1.00  0.00    +0.294 S 
ATOM      2  O   UNL     1     -26.142   3.421   8.462  1.00  0.00    -0.194 OA
ATOM      3  O   UNL     1     -28.422   4.367   9.027  1.00  0.00    -0.194 OA
ENDROOT
BRANCH   1   4
ATOM      4  O   UNL     1     -26.550   4.720  10.531  1.00  0.00    -0.282 OA
ATOM      5  H   UNL     1     -27.274   4.370  11.094  1.00  0.00    +0.234 HD
ENDBRANCH   1   4
BRANCH   1   6
ATOM      6  C   UNL     1     -26.548   5.975   8.166  1.00  0.00    +0.095 A 
ATOM      7  C   UNL     1     -27.538   6.942   7.951  1.00  0.00    +0.032 A 
ATOM      8  C   UNL     1     -25.250   6.167   7.710  1.00  0.00    +0.023 A 
ATOM      9  C   UNL     1     -27.256   8.151   7.270  1.00  0.00    -0.009 A 
ATOM     10  C   UNL     1     -24.944   7.346   7.037  1.00  0.00    +0.010 A 
ATOM     11  C   UNL     1     -28.231   9.183   7.022  1.00  0.00    -0.010 A 
ATOM     12  C   UNL     1     -25.923   8.331   6.813  1.00  0.00    -0.018 A 
ATOM     13  C   UNL     1     -29.587   9.116   7.431  1.00  0.00    +0.009 A 
ATOM     14  C   UNL     1     -27.836  10.353   6.325  1.00  0.00    -0.018 A 
ATOM     15  C   UNL     1     -25.572   9.499   6.132  1.00  0.00    +0.009 A 
ATOM     16  C   UNL     1     -30.499  10.143   7.166  1.00  0.00    +0.001 A 
ATOM     17  C   UNL     1     -28.760  11.379   6.066  1.00  0.00    +0.009 A 
ATOM     18  C   UNL     1     -26.515  10.495   5.892  1.00  0.00    +0.009 A 
ATOM     19  C   UNL     1     -30.085  11.276   6.483  1.00  0.00    +0.001 A 
ENDBRANCH   1   6
TORSDOF 2
ENDMDL
MODEL 2
REMARK VINA RESULT:    -9.579      3.752      5.662
REMARK INTER + INTRA:         -10.536
REMARK INTER:                 -10.418
REMARK INTRA:                  -0.119
REMARK UNBOUND:                -0.117
REMARK SMILES O=S(=O)(O)c1ccc2ccc3ccccc3c2c1
REMARK SMILES IDX 2 1 1 2 3 3 4 4 5 6 18 7 6 8 17 9 7 10 16 11 8 12 15 13
REMARK SMILES IDX 11 14 9 15 14 16 12 17 10 18 13 19
REMARK H PARENT 4 5
ROOT
ATOM      1  S   UNL     1     -31.052  11.005   7.227  1.00  0.00    +0.294 S 
ATOM      2  O   UNL     1     -30.967  12.199   8.037  1.00  0.00    -0.194 OA
ATOM      3  O   UNL     1     -31.785   9.833   7.656  1.00  0.00    -0.194 OA
ENDROOT
BRANCH   1   4
ATOM      4  O   UNL     1     -31.715  11.408   5.811  1.00  0.00    -0.282 OA
ATOM      5  H   UNL     1     -32.165  12.271   5.937  1.00  0.00    +0.234 HD
ENDBRANCH   1   4
BRANCH   1   6
ATOM      6  C   UNL     1     -29.403  10.511   6.819  1.00  0.00    +0.095 A 
ATOM      7  C   UNL     1     -28.931   9.272   7.271  1.00  0.00    +0.032 A 
ATOM      8  C   UNL     1     -28.586  11.364   6.088  1.00  0.00    +0.023 A 
ATOM      9  C   UNL     1     -27.611   8.839   6.998  1.00  0.00    -0.009 A 
ATOM     10  C   UNL     1     -27.284  10.964   5.804  1.00  0.00    +0.010 A 
ATOM     11  C   UNL     1     -27.070   7.576   7.433  1.00  0.00    -0.010 A 
ATOM     12  C   UNL     1     -26.791   9.723   6.246  1.00  0.00    -0.018 A 
ATOM     13  C   UNL     1     -27.793   6.614   8.184  1.00  0.00    +0.009 A 
ATOM     14  C   UNL     1     -25.731   7.247   7.102  1.00  0.00    -0.018 A 
ATOM     15  C   UNL     1     -25.477   9.362   5.940  1.00  0.00    +0.009 A 
ATOM     16  C   UNL     1     -27.225   5.401   8.586  1.00  0.00    +0.001 A 
ATOM     17  C   UNL     1     -25.172   6.025   7.511  1.00  0.00    +0.009 A 
ATOM     18  C   UNL     1     -24.955   8.142   6.361  1.00  0.00    +0.009 A 
ATOM     19  C   UNL     1     -25.913   5.106   8.249  1.00  0.00    +0.001 A 
ENDBRANCH   1   6
TORSDOF 2
ENDMDL
MODEL 3
REMARK VINA RESULT:    -9.480      1.372      2.052
REMARK INTER + INTRA:         -10.428
REMARK INTER:                 -10.308
REMARK INTRA:                  -0.120
REMARK UNBOUND:                -0.117
REMARK SMILES O=S(=O)(O)c1ccc2ccc3ccccc3c2c1
REMARK SMILES IDX 2 1 1 2 3 3 4 4 5 6 18 7 6 8 17 9 7 10 16 11 8 12 15 13
REMARK SMILES IDX 11 14 9 15 14 16 12 17 10 18 13 19
REMARK H PARENT 4 5
ROOT
ATOM      1  S   UNL     1     -25.794   6.102   7.963  1.00  0.00    +0.294 S 
ATOM      2  O   UNL     1     -24.645   6.182   8.834  1.00  0.00    -0.194 OA
ATOM      3  O   UNL     1     -25.897   5.113   6.910  1.00  0.00    -0.194 OA
ENDROOT
BRANCH   1   4
ATOM      4  O   UNL     1     -27.102   5.863   8.879  1.00  0.00    -0.282 OA
ATOM      5  H   UNL     1     -26.913   6.251   9.760  1.00  0.00    +0.234 HD
ENDBRANCH   1   4
BRANCH   1   6
ATOM      6  C   UNL     1     -26.041   7.702   7.247  1.00  0.00    +0.095 A 
ATOM      7  C   UNL     1     -27.315   8.281   7.297  1.00  0.00    +0.032 A 
ATOM      8  C   UNL     1     -24.985   8.348   6.618  1.00  0.00    +0.023 A 
ATOM      9  C   UNL     1     -27.575   9.547   6.717  1.00  0.00    -0.009 A 
ATOM     10  C   UNL     1     -25.212   9.594   6.039  1.00  0.00    +0.010 A 
ATOM     11  C   UNL     1     -28.863  10.194   6.739  1.00  0.00    -0.010 A 
ATOM     12  C   UNL     1     -26.483  10.195   6.080  1.00  0.00    -0.018 A 
ATOM     13  C   UNL     1     -30.022   9.647   7.345  1.00  0.00    +0.009 A 
ATOM     14  C   UNL     1     -29.008  11.463   6.122  1.00  0.00    -0.018 A 
ATOM     15  C   UNL     1     -26.666  11.445   5.485  1.00  0.00    +0.009 A 
ATOM     16  C   UNL     1     -31.252  10.313   7.340  1.00  0.00    +0.001 A 
ATOM     17  C   UNL     1     -30.249  12.122   6.124  1.00  0.00    +0.009 A 
ATOM     18  C   UNL     1     -27.910  12.070   5.506  1.00  0.00    +0.009 A 
ATOM     19  C   UNL     1     -31.365  11.552   6.729  1.00  0.00    +0.001 A 
ENDBRANCH   1   6
TORSDOF 2
ENDMDL
MODEL 4
REMARK VINA RESULT:    -8.629      2.935      4.971
REMARK INTER + INTRA:          -9.503
REMARK INTER:                  -9.386
REMARK INTRA:                  -0.116
REMARK UNBOUND:                -0.117
REMARK SMILES O=S(=O)(O)c1ccc2ccc3ccccc3c2c1
REMARK SMILES IDX 2 1 1 2 3 3 4 4 5 6 18 7 6 8 17 9 7 10 16 11 8 12 15 13
REMARK SMILES IDX 11 14 9 15 14 16 12 17 10 18 13 19
REMARK H PARENT 4 5
ROOT
ATOM      1  S   UNL     1     -32.395   6.172   7.832  1.00  0.00    +0.294 S 
ATOM      2  O   UNL     1     -31.327   5.476   8.512  1.00  0.00    -0.194 OA
ATOM      3  O   UNL     1     -32.985   5.674   6.607  1.00  0.00    -0.194 OA
ENDROOT
BRANCH   1   4
ATOM      4  O   UNL     1     -33.634   6.311   8.857  1.00  0.00    -0.282 OA
ATOM      5  H   UNL     1     -33.727   5.450   9.318  1.00  0.00    +0.234 HD
ENDBRANCH   1   4
BRANCH   1   6
ATOM      6  C   UNL     1     -31.861   7.837   7.554  1.00  0.00    +0.095 A 
ATOM      7  C   UNL     1     -30.568   8.066   7.068  1.00  0.00    +0.032 A 
ATOM      8  C   UNL     1     -32.712   8.894   7.851  1.00  0.00    +0.023 A 
ATOM      9  C   UNL     1     -30.080   9.378   6.854  1.00  0.00    -0.009 A 
ATOM     10  C   UNL     1     -32.259  10.195   7.650  1.00  0.00    +0.010 A 
ATOM     11  C   UNL     1     -28.762   9.676   6.353  1.00  0.00    -0.010 A 
ATOM     12  C   UNL     1     -30.964  10.447   7.160  1.00  0.00    -0.018 A 
ATOM     13  C   UNL     1     -27.796   8.696   6.012  1.00  0.00    +0.009 A 
ATOM     14  C   UNL     1     -28.379  11.031   6.180  1.00  0.00    -0.018 A 
ATOM     15  C   UNL     1     -30.551  11.768   6.975  1.00  0.00    +0.009 A 
ATOM     16  C   UNL     1     -26.527   9.033   5.531  1.00  0.00    +0.001 A 
ATOM     17  C   UNL     1     -27.101  11.357   5.695  1.00  0.00    +0.009 A 
ATOM     18  C   UNL     1     -29.277  12.055   6.492  1.00  0.00    +0.009 A 
ATOM     19  C   UNL     1     -26.179  10.365   5.372  1.00  0.00    +0.001 A 
ENDBRANCH   1   6
TORSDOF 2
ENDMDL
MODEL 5
REMARK VINA RESULT:    -8.539      6.981      9.245
REMARK INTER + INTRA:          -9.405
REMARK INTER:                  -9.288
REMARK INTRA:                  -0.117
REMARK UNBOUND:                -0.117
REMARK SMILES O=S(=O)(O)c1ccc2ccc3ccccc3c2c1
REMARK SMILES IDX 2 1 1 2 3 3 4 4 5 6 18 7 6 8 17 9 7 10 16 11 8 12 15 13
REMARK SMILES IDX 11 14 9 15 14 16 12 17 10 18 13 19
REMARK H PARENT 4 5
ROOT
ATOM      1  S   UNL     1     -25.849   3.574  10.055  1.00  0.00    +0.294 S 
ATOM      2  O   UNL     1     -25.920   2.790   8.844  1.00  0.00    -0.194 OA
ATOM      3  O   UNL     1     -24.591   3.892  10.697  1.00  0.00    -0.194 OA
ENDROOT
BRANCH   1   4
ATOM      4  O   UNL     1     -26.534   5.007   9.764  1.00  0.00    -0.282 OA
ATOM      5  H   UNL     1     -27.278   5.106  10.396  1.00  0.00    +0.234 HD
ENDBRANCH   1   4
BRANCH   1   6
ATOM      6  C   UNL     1     -26.907   2.813  11.253  1.00  0.00    +0.095 A 
ATOM      7  C   UNL     1     -27.881   1.904  10.822  1.00  0.00    +0.032 A 
ATOM      8  C   UNL     1     -26.784   3.147  12.595  1.00  0.00    +0.023 A 
ATOM      9  C   UNL     1     -28.772   1.287  11.733  1.00  0.00    -0.009 A 
ATOM     10  C   UNL     1     -27.646   2.555  13.514  1.00  0.00    +0.010 A 
ATOM     11  C   UNL     1     -29.792   0.344  11.350  1.00  0.00    -0.010 A 
ATOM     12  C   UNL     1     -28.630   1.638  13.103  1.00  0.00    -0.018 A 
ATOM     13  C   UNL     1     -30.026  -0.083  10.019  1.00  0.00    +0.009 A 
ATOM     14  C   UNL     1     -30.631  -0.210  12.351  1.00  0.00    -0.018 A 
ATOM     15  C   UNL     1     -29.475   1.070  14.058  1.00  0.00    +0.009 A 
ATOM     16  C   UNL     1     -31.030  -1.001   9.694  1.00  0.00    +0.001 A 
ATOM     17  C   UNL     1     -31.636  -1.132  12.013  1.00  0.00    +0.009 A 
ATOM     18  C   UNL     1     -30.461   0.159  13.688  1.00  0.00    +0.009 A 
ATOM     19  C   UNL     1     -31.836  -1.526  10.692  1.00  0.00    +0.001 A 
ENDBRANCH   1   6
TORSDOF 2
ENDMDL
MODEL 6
REMARK VINA RESULT:    -8.134      6.330      8.223
REMARK INTER + INTRA:          -8.964
REMARK INTER:                  -8.849
REMARK INTRA:                  -0.115
REMARK UNBOUND:                -0.117
REMARK SMILES O=S(=O)(O)c1ccc2ccc3ccccc3c2c1
REMARK SMILES IDX 2 1 1 2 3 3 4 4 5 6 18 7 6 8 17 9 7 10 16 11 8 12 15 13
REMARK SMILES IDX 11 14 9 15 14 16 12 17 10 18 13 19
REMARK H PARENT 4 5
ROOT
ATOM      1  S   UNL     1     -31.383   9.411   7.009  1.00  0.00    +0.294 S 
ATOM      2  O   UNL     1     -29.978   9.078   6.966  1.00  0.00    -0.194 OA
ATOM      3  O   UNL     1     -31.988  10.057   8.155  1.00  0.00    -0.194 OA
ENDROOT
BRANCH   1   4
ATOM      4  O   UNL     1     -31.703  10.395   5.769  1.00  0.00    -0.282 OA
ATOM      5  H   UNL     1     -31.775  11.304   6.132  1.00  0.00    +0.234 HD
ENDBRANCH   1   4
BRANCH   1   6
ATOM      6  C   UNL     1     -32.298   7.939   6.654  1.00  0.00    +0.095 A 
ATOM      7  C   UNL     1     -32.624   7.069   7.702  1.00  0.00    +0.032 A 
ATOM      8  C   UNL     1     -32.654   7.645   5.343  1.00  0.00    +0.023 A 
ATOM      9  C   UNL     1     -33.330   5.863   7.470  1.00  0.00    -0.009 A 
ATOM     10  C   UNL     1     -33.349   6.467   5.086  1.00  0.00    +0.010 A 
ATOM     11  C   UNL     1     -33.695   4.931   8.507  1.00  0.00    -0.010 A 
ATOM     12  C   UNL     1     -33.688   5.580   6.125  1.00  0.00    -0.018 A 
ATOM     13  C   UNL     1     -33.395   5.107   9.882  1.00  0.00    +0.009 A 
ATOM     14  C   UNL     1     -34.401   3.752   8.158  1.00  0.00    -0.018 A 
ATOM     15  C   UNL     1     -34.384   4.409   5.821  1.00  0.00    +0.009 A 
ATOM     16  C   UNL     1     -33.769   4.173  10.853  1.00  0.00    +0.001 A 
ATOM     17  C   UNL     1     -34.772   2.821   9.143  1.00  0.00    +0.009 A 
ATOM     18  C   UNL     1     -34.736   3.508   6.823  1.00  0.00    +0.009 A 
ATOM     19  C   UNL     1     -34.458   3.029  10.483  1.00  0.00    +0.001 A 
ENDBRANCH   1   6
TORSDOF 2
ENDMDL
MODEL 7
REMARK VINA RESULT:    -8.069      7.382      9.031
REMARK INTER + INTRA:          -8.894
REMARK INTER:                  -8.775
REMARK INTRA:                  -0.120
REMARK UNBOUND:                -0.117
REMARK SMILES O=S(=O)(O)c1ccc2ccc3ccccc3c2c1
REMARK SMILES IDX 2 1 1 2 3 3 4 4 5 6 18 7 6 8 17 9 7 10 16 11 8 12 15 13
REMARK SMILES IDX 11 14 9 15 14 16 12 17 10 18 13 19
REMARK H PARENT 4 5
ROOT
ATOM      1  S   UNL     1     -38.310   4.484  10.125  1.00  0.00    +0.294 S 
ATOM      2  O   UNL     1     -38.933   5.658  10.693  1.00  0.00    -0.194 OA
ATOM      3  O   UNL     1     -38.505   3.161  10.681  1.00  0.00    -0.194 OA
ENDROOT
BRANCH   1   4
ATOM      4  O   UNL     1     -38.789   4.357   8.588  1.00  0.00    -0.282 OA
ATOM      5  H   UNL     1     -38.110   3.828   8.117  1.00  0.00    +0.234 HD
ENDBRANCH   1   4
BRANCH   1   6
ATOM      6  C   UNL     1     -36.570   4.792  10.023  1.00  0.00    +0.095 A 
ATOM      7  C   UNL     1     -36.032   5.267   8.820  1.00  0.00    +0.032 A 
ATOM      8  C   UNL     1     -35.756   4.531  11.118  1.00  0.00    +0.023 A 
ATOM      9  C   UNL     1     -34.644   5.504   8.674  1.00  0.00    -0.009 A 
ATOM     10  C   UNL     1     -34.387   4.755  11.003  1.00  0.00    +0.010 A 
ATOM     11  C   UNL     1     -34.032   5.994   7.464  1.00  0.00    -0.010 A 
ATOM     12  C   UNL     1     -33.826   5.234   9.804  1.00  0.00    -0.018 A 
ATOM     13  C   UNL     1     -34.744   6.300   6.277  1.00  0.00    +0.009 A 
ATOM     14  C   UNL     1     -32.628   6.192   7.431  1.00  0.00    -0.018 A 
ATOM     15  C   UNL     1     -32.447   5.443   9.733  1.00  0.00    +0.009 A 
ATOM     16  C   UNL     1     -34.107   6.772   5.125  1.00  0.00    +0.001 A 
ATOM     17  C   UNL     1     -32.000   6.668   6.268  1.00  0.00    +0.009 A 
ATOM     18  C   UNL     1     -31.857   5.916   8.564  1.00  0.00    +0.009 A 
ATOM     19  C   UNL     1     -32.733   6.957   5.121  1.00  0.00    +0.001 A 
ENDBRANCH   1   6
TORSDOF 2
ENDMDL
MODEL 8
REMARK VINA RESULT:    -7.991      7.610      9.326
REMARK INTER + INTRA:          -8.809
REMARK INTER:                  -8.693
REMARK INTRA:                  -0.116
REMARK UNBOUND:                -0.117
REMARK SMILES O=S(=O)(O)c1ccc2ccc3ccccc3c2c1
REMARK SMILES IDX 2 1 1 2 3 3 4 4 5 6 18 7 6 8 17 9 7 10 16 11 8 12 15 13
REMARK SMILES IDX 11 14 9 15 14 16 12 17 10 18 13 19
REMARK H PARENT 4 5
ROOT
ATOM      1  S   UNL     1     -32.491   7.598   6.929  1.00  0.00    +0.294 S 
ATOM      2  O   UNL     1     -32.983   7.343   5.594  1.00  0.00    -0.194 OA
ATOM      3  O   UNL     1     -31.096   7.876   7.197  1.00  0.00    -0.194 OA
ENDROOT
BRANCH   1   4
ATOM      4  O   UNL     1     -33.284   8.875   7.518  1.00  0.00    -0.282 OA
ATOM      5  H   UNL     1     -33.336   9.541   6.799  1.00  0.00    +0.234 HD
ENDBRANCH   1   4
BRANCH   1   6
ATOM      6  C   UNL     1     -32.997   6.250   7.957  1.00  0.00    +0.095 A 
ATOM      7  C   UNL     1     -34.356   6.097   8.261  1.00  0.00    +0.032 A 
ATOM      8  C   UNL     1     -32.046   5.381   8.476  1.00  0.00    +0.023 A 
ATOM      9  C   UNL     1     -34.813   5.053   9.101  1.00  0.00    -0.009 A 
ATOM     10  C   UNL     1     -32.467   4.345   9.305  1.00  0.00    +0.010 A 
ATOM     11  C   UNL     1     -36.197   4.844   9.447  1.00  0.00    -0.010 A 
ATOM     12  C   UNL     1     -33.827   4.172   9.621  1.00  0.00    -0.018 A 
ATOM     13  C   UNL     1     -37.266   5.654   8.988  1.00  0.00    +0.009 A 
ATOM     14  C   UNL     1     -36.539   3.765  10.301  1.00  0.00    -0.018 A 
ATOM     15  C   UNL     1     -34.205   3.120  10.458  1.00  0.00    +0.009 A 
ATOM     16  C   UNL     1     -38.595   5.413   9.353  1.00  0.00    +0.001 A 
ATOM     17  C   UNL     1     -37.878   3.532  10.659  1.00  0.00    +0.009 A 
ATOM     18  C   UNL     1     -35.541   2.919  10.792  1.00  0.00    +0.009 A 
ATOM     19  C   UNL     1     -38.901   4.351  10.189  1.00  0.00    +0.001 A 
ENDBRANCH   1   6
TORSDOF 2
ENDMDL
MODEL 9
REMARK VINA RESULT:    -7.939      6.982      9.754
REMARK INTER + INTRA:          -8.752
REMARK INTER:                  -8.636
REMARK INTRA:                  -0.116
REMARK UNBOUND:                -0.117
REMARK SMILES O=S(=O)(O)c1ccc2ccc3ccccc3c2c1
REMARK SMILES IDX 2 1 1 2 3 3 4 4 5 6 18 7 6 8 17 9 7 10 16 11 8 12 15 13
REMARK SMILES IDX 11 14 9 15 14 16 12 17 10 18 13 19
REMARK H PARENT 4 5
ROOT
ATOM      1  S   UNL     1     -26.555   3.826   9.633  1.00  0.00    +0.294 S 
ATOM      2  O   UNL     1     -27.824   4.328   9.159  1.00  0.00    -0.194 OA
ATOM      3  O   UNL     1     -25.367   3.828   8.807  1.00  0.00    -0.194 OA
ENDROOT
BRANCH   1   4
ATOM      4  O   UNL     1     -26.143   4.669  10.947  1.00  0.00    -0.282 OA
ATOM      5  H   UNL     1     -26.439   5.593  10.802  1.00  0.00    +0.234 HD
ENDBRANCH   1   4
BRANCH   1   6
ATOM      6  C   UNL     1     -26.815   2.179  10.229  1.00  0.00    +0.095 A 
ATOM      7  C   UNL     1     -27.447   1.993  11.464  1.00  0.00    +0.032 A 
ATOM      8  C   UNL     1     -26.363   1.096   9.486  1.00  0.00    +0.023 A 
ATOM      9  C   UNL     1     -27.655   0.699  12.001  1.00  0.00    -0.009 A 
ATOM     10  C   UNL     1     -26.554  -0.188   9.989  1.00  0.00    +0.010 A 
ATOM     11  C   UNL     1     -28.301   0.445  13.264  1.00  0.00    -0.010 A 
ATOM     12  C   UNL     1     -27.189  -0.397  11.227  1.00  0.00    -0.018 A 
ATOM     13  C   UNL     1     -28.808   1.455  14.120  1.00  0.00    +0.009 A 
ATOM     14  C   UNL     1     -28.453  -0.895  13.704  1.00  0.00    -0.018 A 
ATOM     15  C   UNL     1     -27.359  -1.702  11.694  1.00  0.00    +0.009 A 
ATOM     16  C   UNL     1     -29.427   1.160  15.339  1.00  0.00    +0.001 A 
ATOM     17  C   UNL     1     -29.077  -1.179  14.931  1.00  0.00    +0.009 A 
ATOM     18  C   UNL     1     -27.983  -1.947  12.915  1.00  0.00    +0.009 A 
ATOM     19  C   UNL     1     -29.562  -0.159  15.745  1.00  0.00    +0.001 A 
ENDBRANCH   1   6
TORSDOF 2
ENDMDL
