REMARK SMILES Cc1nc(N2CCCCC2)c2cnn(-c3ccc([N+](=O)[O-])cc3)c2n1
REMARK SMILES IDX 15 1 16 2 17 3 18 4 22 5 23 6 14 7 2 8 25 9 3 10 24 11 4 12
REMARK SMILES IDX 11 13 12 14 13 15 1 16 5 17 6 18 10 19 7 20 9 21 8 22 19 23
REMARK SMILES IDX 20 24 21 25
REMARK H PARENT
ROOT
ATOM      1  C   UNL     1       3.229   0.769   0.319  1.00  0.00    +0.068 A 
ATOM      2  C   UNL     1       3.984   1.959   0.318  1.00  0.00    +0.035 A 
ATOM      3  C   UNL     1       5.382   1.922   0.309  1.00  0.00    +0.088 A 
ATOM      4  C   UNL     1       6.038   0.687   0.302  1.00  0.00    +0.269 A 
ATOM      5  C   UNL     1       5.303  -0.505   0.303  1.00  0.00    +0.088 A 
ATOM      6  C   UNL     1       3.902  -0.461   0.311  1.00  0.00    +0.035 A 
ENDROOT
BRANCH   1   7
ATOM      7  N   UNL     1       1.800   0.854   0.328  1.00  0.00    -0.215 N 
ATOM      8  C   UNL     1      -0.080  -2.207   0.393  1.00  0.00    +0.130 A 
ATOM      9  N   UNL     1       1.060  -1.498   0.366  1.00  0.00    -0.213 NA
ATOM     10  N   UNL     1      -1.333  -1.708   0.394  1.00  0.00    -0.215 NA
ATOM     11  C   UNL     1       0.850  -0.168   0.339  1.00  0.00    +0.168 A 
ATOM     12  C   UNL     1      -1.539  -0.366   0.331  1.00  0.00    +0.143 A 
ATOM     13  C   UNL     1      -0.392   0.447   0.326  1.00  0.00    +0.082 A 
ATOM     14  C   UNL     1      -0.102   1.821   0.344  1.00  0.00    +0.150 A 
ATOM     15  N   UNL     1       1.203   2.085   0.327  1.00  0.00    -0.174 NA
ATOM     16  C   UNL     1       0.050  -3.698   0.476  1.00  0.00    +0.090 C 
BRANCH  12  17
ATOM     17  N   UNL     1      -2.845   0.130   0.325  1.00  0.00    -0.356 N 
ATOM     18  C   UNL     1      -3.161   1.141  -0.693  1.00  0.00    +0.118 C 
ATOM     19  C   UNL     1      -3.885  -0.852   0.651  1.00  0.00    +0.118 C 
ATOM     20  C   UNL     1      -4.449   0.805  -1.445  1.00  0.00    +0.022 C 
ATOM     21  C   UNL     1      -5.228  -0.137   0.786  1.00  0.00    +0.022 C 
ATOM     22  C   UNL     1      -5.628   0.584  -0.501  1.00  0.00    +0.004 C 
ENDBRANCH  12  17
ENDBRANCH   1   7
BRANCH   4  23
ATOM     23  N   UNL     1       7.505   0.639   0.292  1.00  0.00    +0.062 N 
ATOM     24  O   UNL     1       8.118   1.716   0.291  1.00  0.00    -0.258 OA
ATOM     25  O   UNL     1       8.046  -0.476   0.285  1.00  0.00    -0.258 OA
ENDBRANCH   4  23
TORSDOF 3
