REMARK SMILES O=Cc1cc2ccccc2c2ccccc12
REMARK SMILES IDX 3 1 16 2 15 3 14 4 13 5 12 6 11 7 10 8 9 9 8 10 7 11 6 12
REMARK SMILES IDX 5 13 4 14 2 15 1 16
REMARK H PARENT
ROOT
ATOM      1  C   UNL     1       0.683   1.751   0.069  1.00  0.00    +0.023 A 
ATOM      2  C   UNL     1       1.345   0.500   0.160  1.00  0.00    -0.007 A 
ATOM      3  C   UNL     1       2.752   0.367   0.319  1.00  0.00    +0.009 A 
ATOM      4  C   UNL     1       3.379  -0.875   0.405  1.00  0.00    +0.001 A 
ATOM      5  C   UNL     1       2.619  -2.026   0.335  1.00  0.00    +0.001 A 
ATOM      6  C   UNL     1       1.237  -1.929   0.179  1.00  0.00    +0.009 A 
ATOM      7  C   UNL     1       0.557  -0.686   0.087  1.00  0.00    -0.010 A 
ATOM      8  C   UNL     1      -0.875  -0.599  -0.074  1.00  0.00    -0.010 A 
ATOM      9  C   UNL     1      -1.748  -1.717  -0.158  1.00  0.00    +0.009 A 
ATOM     10  C   UNL     1      -3.131  -1.583  -0.314  1.00  0.00    +0.001 A 
ATOM     11  C   UNL     1      -3.697  -0.322  -0.394  1.00  0.00    +0.001 A 
ATOM     12  C   UNL     1      -2.878   0.800  -0.317  1.00  0.00    +0.009 A 
ATOM     13  C   UNL     1      -1.487   0.674  -0.160  1.00  0.00    -0.017 A 
ATOM     14  C   UNL     1      -0.705   1.825  -0.087  1.00  0.00    +0.021 A 
ENDROOT
BRANCH   1  15
ATOM     15  C   UNL     1       1.403   3.050   0.133  1.00  0.00    +0.260 C 
ATOM     16  O   UNL     1       0.820   4.127   0.053  1.00  0.00    -0.298 OA
ENDBRANCH   1  15
TORSDOF 1
