MODEL 1
REMARK VINA RESULT:   -12.228      0.000      0.000
REMARK INTER + INTRA:         -16.662
REMARK INTER:                 -16.517
REMARK INTRA:                  -0.145
REMARK UNBOUND:                -0.145
REMARK SMILES O=C(Nc1ccc2c(O)cc(S(=O)(=O)O)cc2c1)Nc1ccc2c(O)cc(S(=O)(=O)O)cc2c1
REMARK SMILES IDX 3 1 2 2 1 3 19 4 4 7 8 8 7 9 10 10 6 11 17 12 11 13 5 14
REMARK SMILES IDX 18 15 16 16 9 17 12 19 13 20 14 21 15 22 20 24 34 25 21 26
REMARK SMILES IDX 33 27 22 28 23 29 32 30 24 31 27 32 26 33 25 34 28 36 29 37
REMARK SMILES IDX 30 38 31 39
REMARK H PARENT 3 5 19 6 9 18 15 23 25 35 31 40
ROOT
ATOM      1  N   UNL     1     -25.507   3.154   9.333  1.00  0.00    -0.308 N 
ATOM      2  C   UNL     1     -26.329   4.176   8.875  1.00  0.00    +0.323 C 
ATOM      3  O   UNL     1     -27.551   4.161   8.911  1.00  0.00    -0.248 OA
ATOM      4  N   UNL     1     -25.561   5.221   8.378  1.00  0.00    -0.308 N 
ATOM      5  H   UNL     1     -24.538   3.209   9.060  1.00  0.00    +0.171 HD
ATOM      6  H   UNL     1     -24.579   5.193   8.600  1.00  0.00    +0.171 HD
ENDROOT
BRANCH   1   7
ATOM      7  C   UNL     1     -25.897   1.965   9.988  1.00  0.00    +0.043 A 
ATOM      8  C   UNL     1     -27.227  -1.434  12.202  1.00  0.00    +0.124 A 
ATOM      9  C   UNL     1     -26.770  -0.334  11.433  1.00  0.00    +0.024 A 
ATOM     10  C   UNL     1     -27.894  -1.260  13.412  1.00  0.00    +0.069 A 
ATOM     11  C   UNL     1     -26.072  -0.443  10.210  1.00  0.00    +0.015 A 
ATOM     12  C   UNL     1     -27.023   0.971  11.925  1.00  0.00    -0.011 A 
ATOM     13  C   UNL     1     -28.133   0.030  13.871  1.00  0.00    +0.098 A 
ATOM     14  C   UNL     1     -25.648   0.688   9.499  1.00  0.00    +0.027 A 
ATOM     15  C   UNL     1     -26.588   2.096  11.197  1.00  0.00    +0.035 A 
ATOM     16  C   UNL     1     -27.707   1.141  13.138  1.00  0.00    +0.032 A 
BRANCH   8  17
ATOM     17  O   UNL     1     -27.059  -2.741  11.826  1.00  0.00    -0.507 OA
ATOM     18  H   UNL     1     -26.661  -2.781  10.945  1.00  0.00    +0.293 HD
ENDBRANCH   8  17
BRANCH  13  19
ATOM     19  S   UNL     1     -29.010   0.293  15.382  1.00  0.00    +0.294 S 
ATOM     20  O   UNL     1     -29.121   1.717  15.615  1.00  0.00    -0.194 OA
ATOM     21  O   UNL     1     -30.160  -0.582  15.379  1.00  0.00    -0.194 OA
BRANCH  19  22
ATOM     22  O   UNL     1     -27.989  -0.232  16.514  1.00  0.00    -0.282 OA
ATOM     23  H   UNL     1     -27.170   0.303  16.437  1.00  0.00    +0.234 HD
ENDBRANCH  19  22
ENDBRANCH  13  19
ENDBRANCH   1   7
BRANCH   4  24
ATOM     24  C   UNL     1     -26.019   6.404   7.757  1.00  0.00    +0.043 A 
ATOM     25  C   UNL     1     -27.272   6.975   7.986  1.00  0.00    +0.035 A 
ATOM     26  C   UNL     1     -25.162   7.018   6.843  1.00  0.00    +0.027 A 
ATOM     27  C   UNL     1     -27.671   8.157   7.334  1.00  0.00    -0.011 A 
ATOM     28  C   UNL     1     -25.541   8.195   6.187  1.00  0.00    +0.015 A 
ATOM     29  C   UNL     1     -26.793   8.800   6.426  1.00  0.00    +0.024 A 
ATOM     30  C   UNL     1     -28.942   8.699   7.576  1.00  0.00    +0.032 A 
ATOM     31  C   UNL     1     -27.234   9.993   5.804  1.00  0.00    +0.124 A 
ATOM     32  C   UNL     1     -29.347   9.868   6.927  1.00  0.00    +0.098 A 
ATOM     33  C   UNL     1     -28.502  10.518   6.035  1.00  0.00    +0.069 A 
BRANCH  31  34
ATOM     34  O   UNL     1     -26.453  10.716   4.942  1.00  0.00    -0.507 OA
ATOM     35  H   UNL     1     -25.534  10.682   5.248  1.00  0.00    +0.293 HD
ENDBRANCH  31  34
BRANCH  32  36
ATOM     36  S   UNL     1     -30.970  10.502   7.226  1.00  0.00    +0.294 S 
ATOM     37  O   UNL     1     -30.851  11.722   7.994  1.00  0.00    -0.194 OA
ATOM     38  O   UNL     1     -31.799   9.400   7.656  1.00  0.00    -0.194 OA
BRANCH  36  39
ATOM     39  O   UNL     1     -31.487  10.980   5.774  1.00  0.00    -0.282 OA
ATOM     40  H   UNL     1     -31.584  10.176   5.219  1.00  0.00    +0.234 HD
ENDBRANCH  36  39
ENDBRANCH  32  36
ENDBRANCH   4  24
TORSDOF 8
ENDMDL
MODEL 2
REMARK VINA RESULT:   -12.145      0.304     10.726
REMARK INTER + INTRA:         -16.550
REMARK INTER:                 -16.748
REMARK INTRA:                   0.198
REMARK UNBOUND:                -0.145
REMARK SMILES O=C(Nc1ccc2c(O)cc(S(=O)(=O)O)cc2c1)Nc1ccc2c(O)cc(S(=O)(=O)O)cc2c1
REMARK SMILES IDX 3 1 2 2 1 3 19 4 4 7 8 8 7 9 10 10 6 11 17 12 11 13 5 14
REMARK SMILES IDX 18 15 16 16 9 17 12 19 13 20 14 21 15 22 20 24 34 25 21 26
REMARK SMILES IDX 33 27 22 28 23 29 32 30 24 31 27 32 26 33 25 34 28 36 29 37
REMARK SMILES IDX 30 38 31 39
REMARK H PARENT 3 5 19 6 9 18 15 23 25 35 31 40
ROOT
ATOM      1  N   UNL     1     -25.483   5.278   8.196  1.00  0.00    -0.308 N 
ATOM      2  C   UNL     1     -26.272   4.383   8.905  1.00  0.00    +0.323 C 
ATOM      3  O   UNL     1     -27.439   4.572   9.216  1.00  0.00    -0.248 OA
ATOM      4  N   UNL     1     -25.546   3.236   9.204  1.00  0.00    -0.308 N 
ATOM      5  H   UNL     1     -24.494   5.085   8.184  1.00  0.00    +0.171 HD
ATOM      6  H   UNL     1     -24.674   3.125   8.712  1.00  0.00    +0.171 HD
ENDROOT
BRANCH   1   7
ATOM      7  C   UNL     1     -25.875   6.512   7.633  1.00  0.00    +0.043 A 
ATOM      8  C   UNL     1     -27.368  10.194   6.070  1.00  0.00    +0.124 A 
ATOM      9  C   UNL     1     -26.830   8.983   6.574  1.00  0.00    +0.024 A 
ATOM     10  C   UNL     1     -28.707  10.535   6.247  1.00  0.00    +0.069 A 
ATOM     11  C   UNL     1     -25.488   8.572   6.413  1.00  0.00    +0.015 A 
ATOM     12  C   UNL     1     -27.696   8.117   7.287  1.00  0.00    -0.011 A 
ATOM     13  C   UNL     1     -29.535   9.669   6.953  1.00  0.00    +0.098 A 
ATOM     14  C   UNL     1     -25.020   7.360   6.938  1.00  0.00    +0.027 A 
ATOM     15  C   UNL     1     -27.208   6.902   7.805  1.00  0.00    +0.035 A 
ATOM     16  C   UNL     1     -29.041   8.471   7.474  1.00  0.00    +0.032 A 
BRANCH   8  17
ATOM     17  O   UNL     1     -26.631  11.120   5.382  1.00  0.00    -0.507 OA
ATOM     18  H   UNL     1     -25.714  11.108   5.692  1.00  0.00    +0.293 HD
ENDBRANCH   8  17
BRANCH  13  19
ATOM     19  S   UNL     1     -31.230  10.083   7.232  1.00  0.00    +0.294 S 
ATOM     20  O   UNL     1     -31.945   8.886   7.619  1.00  0.00    -0.194 OA
ATOM     21  O   UNL     1     -31.261  11.292   8.024  1.00  0.00    -0.194 OA
BRANCH  19  22
ATOM     22  O   UNL     1     -31.786  10.438   5.760  1.00  0.00    -0.282 OA
ATOM     23  H   UNL     1     -31.205   9.983   5.114  1.00  0.00    +0.234 HD
ENDBRANCH  19  22
ENDBRANCH  13  19
ENDBRANCH   1   7
BRANCH   4  24
ATOM     24  C   UNL     1     -25.966   2.129   9.973  1.00  0.00    +0.043 A 
ATOM     25  C   UNL     1     -26.667   2.231  11.175  1.00  0.00    +0.035 A 
ATOM     26  C   UNL     1     -25.632   0.860   9.499  1.00  0.00    +0.027 A 
ATOM     27  C   UNL     1     -27.056   1.086  11.897  1.00  0.00    -0.011 A 
ATOM     28  C   UNL     1     -26.013  -0.289  10.202  1.00  0.00    +0.015 A 
ATOM     29  C   UNL     1     -26.745  -0.206  11.405  1.00  0.00    +0.024 A 
ATOM     30  C   UNL     1     -27.749   1.222  13.110  1.00  0.00    +0.032 A 
ATOM     31  C   UNL     1     -27.169  -1.327  12.160  1.00  0.00    +0.124 A 
ATOM     32  C   UNL     1     -28.133   0.091  13.834  1.00  0.00    +0.098 A 
ATOM     33  C   UNL     1     -27.842  -1.187  13.370  1.00  0.00    +0.069 A 
BRANCH  31  34
ATOM     34  O   UNL     1     -26.956  -2.618  11.758  1.00  0.00    -0.507 OA
ATOM     35  H   UNL     1     -27.475  -3.212  12.323  1.00  0.00    +0.293 HD
ENDBRANCH  31  34
BRANCH  32  36
ATOM     36  S   UNL     1     -28.970   0.299  15.377  1.00  0.00    +0.294 S 
ATOM     37  O   UNL     1     -30.110  -0.592  15.404  1.00  0.00    -0.194 OA
ATOM     38  O   UNL     1     -29.097   1.718  15.619  1.00  0.00    -0.194 OA
BRANCH  36  39
ATOM     39  O   UNL     1     -27.951  -0.306  16.471  1.00  0.00    -0.282 OA
ATOM     40  H   UNL     1     -28.115   0.167  17.316  1.00  0.00    +0.234 HD
ENDBRANCH  36  39
ENDBRANCH  32  36
ENDBRANCH   4  24
TORSDOF 8
ENDMDL
MODEL 3
REMARK VINA RESULT:   -11.779      3.476      4.866
REMARK INTER + INTRA:         -16.056
REMARK INTER:                 -16.129
REMARK INTRA:                   0.073
REMARK UNBOUND:                -0.145
REMARK SMILES O=C(Nc1ccc2c(O)cc(S(=O)(=O)O)cc2c1)Nc1ccc2c(O)cc(S(=O)(=O)O)cc2c1
REMARK SMILES IDX 3 1 2 2 1 3 19 4 4 7 8 8 7 9 10 10 6 11 17 12 11 13 5 14
REMARK SMILES IDX 18 15 16 16 9 17 12 19 13 20 14 21 15 22 20 24 34 25 21 26
REMARK SMILES IDX 33 27 22 28 23 29 32 30 24 31 27 32 26 33 25 34 28 36 29 37
REMARK SMILES IDX 30 38 31 39
REMARK H PARENT 3 5 19 6 9 18 15 23 25 35 31 40
ROOT
ATOM      1  N   UNL     1     -27.436   4.574   9.349  1.00  0.00    -0.308 N 
ATOM      2  C   UNL     1     -27.403   5.812   8.720  1.00  0.00    +0.323 C 
ATOM      3  O   UNL     1     -26.385   6.432   8.447  1.00  0.00    -0.248 OA
ATOM      4  N   UNL     1     -28.694   6.241   8.439  1.00  0.00    -0.308 N 
ATOM      5  H   UNL     1     -28.335   4.275   9.692  1.00  0.00    +0.171 HD
ATOM      6  H   UNL     1     -29.419   5.548   8.526  1.00  0.00    +0.171 HD
ENDROOT
BRANCH   1   7
ATOM      7  C   UNL     1     -26.338   3.765   9.714  1.00  0.00    +0.043 A 
ATOM      8  C   UNL     1     -23.185   1.055  10.684  1.00  0.00    +0.124 A 
ATOM      9  C   UNL     1     -24.205   1.990  10.375  1.00  0.00    +0.024 A 
ATOM     10  C   UNL     1     -23.338  -0.308  10.440  1.00  0.00    +0.069 A 
ATOM     11  C   UNL     1     -24.119   3.380  10.613  1.00  0.00    +0.015 A 
ATOM     12  C   UNL     1     -25.400   1.502   9.791  1.00  0.00    -0.011 A 
ATOM     13  C   UNL     1     -24.518  -0.762   9.863  1.00  0.00    +0.098 A 
ATOM     14  C   UNL     1     -25.166   4.251  10.283  1.00  0.00    +0.027 A 
ATOM     15  C   UNL     1     -26.442   2.392   9.468  1.00  0.00    +0.035 A 
ATOM     16  C   UNL     1     -25.543   0.129   9.536  1.00  0.00    +0.032 A 
BRANCH   8  17
ATOM     17  O   UNL     1     -21.980   1.404  11.233  1.00  0.00    -0.507 OA
ATOM     18  H   UNL     1     -21.383   0.642  11.231  1.00  0.00    +0.293 HD
ENDBRANCH   8  17
BRANCH  13  19
ATOM     19  S   UNL     1     -24.736  -2.478   9.504  1.00  0.00    +0.294 S 
ATOM     20  O   UNL     1     -23.434  -3.098   9.382  1.00  0.00    -0.194 OA
ATOM     21  O   UNL     1     -25.753  -2.986  10.396  1.00  0.00    -0.194 OA
BRANCH  19  22
ATOM     22  O   UNL     1     -25.338  -2.484   8.008  1.00  0.00    -0.282 OA
ATOM     23  H   UNL     1     -25.031  -1.661   7.569  1.00  0.00    +0.234 HD
ENDBRANCH  19  22
ENDBRANCH  13  19
ENDBRANCH   1   7
BRANCH   4  24
ATOM     24  C   UNL     1     -29.086   7.475   7.875  1.00  0.00    +0.043 A 
ATOM     25  C   UNL     1     -28.196   8.424   7.373  1.00  0.00    +0.035 A 
ATOM     26  C   UNL     1     -30.452   7.758   7.846  1.00  0.00    +0.027 A 
ATOM     27  C   UNL     1     -28.650   9.639   6.824  1.00  0.00    -0.011 A 
ATOM     28  C   UNL     1     -30.922   8.959   7.302  1.00  0.00    +0.015 A 
ATOM     29  C   UNL     1     -30.038   9.919   6.766  1.00  0.00    +0.024 A 
ATOM     30  C   UNL     1     -27.728  10.579   6.338  1.00  0.00    +0.032 A 
ATOM     31  C   UNL     1     -30.447  11.148   6.193  1.00  0.00    +0.124 A 
ATOM     32  C   UNL     1     -28.172  11.789   5.798  1.00  0.00    +0.098 A 
ATOM     33  C   UNL     1     -29.529  12.084   5.727  1.00  0.00    +0.069 A 
BRANCH  31  34
ATOM     34  O   UNL     1     -31.762  11.502   6.051  1.00  0.00    -0.507 OA
ATOM     35  H   UNL     1     -32.119  11.738   6.922  1.00  0.00    +0.293 HD
ENDBRANCH  31  34
BRANCH  32  36
ATOM     36  S   UNL     1     -26.983  12.967   5.231  1.00  0.00    +0.294 S 
ATOM     37  O   UNL     1     -25.704  12.655   5.832  1.00  0.00    -0.194 OA
ATOM     38  O   UNL     1     -27.581  14.278   5.332  1.00  0.00    -0.194 OA
BRANCH  36  39
ATOM     39  O   UNL     1     -26.794  12.623   3.666  1.00  0.00    -0.282 OA
ATOM     40  H   UNL     1     -27.589  12.126   3.378  1.00  0.00    +0.234 HD
ENDBRANCH  36  39
ENDBRANCH  32  36
ENDBRANCH   4  24
TORSDOF 8
ENDMDL
MODEL 4
REMARK VINA RESULT:   -11.381      1.789     10.549
REMARK INTER + INTRA:         -15.519
REMARK INTER:                 -15.914
REMARK INTRA:                   0.395
REMARK UNBOUND:                -0.145
REMARK SMILES O=C(Nc1ccc2c(O)cc(S(=O)(=O)O)cc2c1)Nc1ccc2c(O)cc(S(=O)(=O)O)cc2c1
REMARK SMILES IDX 3 1 2 2 1 3 19 4 4 7 8 8 7 9 10 10 6 11 17 12 11 13 5 14
REMARK SMILES IDX 18 15 16 16 9 17 12 19 13 20 14 21 15 22 20 24 34 25 21 26
REMARK SMILES IDX 33 27 22 28 23 29 32 30 24 31 27 32 26 33 25 34 28 36 29 37
REMARK SMILES IDX 30 38 31 39
REMARK H PARENT 3 5 19 6 9 18 15 23 25 35 31 40
ROOT
ATOM      1  N   UNL     1     -25.526   5.669   7.930  1.00  0.00    -0.308 N 
ATOM      2  C   UNL     1     -26.392   4.841   8.632  1.00  0.00    +0.323 C 
ATOM      3  O   UNL     1     -27.552   5.113   8.907  1.00  0.00    -0.248 OA
ATOM      4  N   UNL     1     -25.752   3.655   8.970  1.00  0.00    -0.308 N 
ATOM      5  H   UNL     1     -24.552   5.410   7.949  1.00  0.00    +0.171 HD
ATOM      6  H   UNL     1     -24.877   3.477   8.505  1.00  0.00    +0.171 HD
ENDROOT
BRANCH   1   7
ATOM      7  C   UNL     1     -25.820   6.916   7.336  1.00  0.00    +0.043 A 
ATOM      8  C   UNL     1     -27.006  10.679   5.704  1.00  0.00    +0.124 A 
ATOM      9  C   UNL     1     -26.570   9.435   6.227  1.00  0.00    +0.024 A 
ATOM     10  C   UNL     1     -28.277  11.184   5.969  1.00  0.00    +0.069 A 
ATOM     11  C   UNL     1     -25.304   8.860   5.981  1.00  0.00    +0.015 A 
ATOM     12  C   UNL     1     -27.466   8.710   7.051  1.00  0.00    -0.011 A 
ATOM     13  C   UNL     1     -29.136  10.455   6.783  1.00  0.00    +0.098 A 
ATOM     14  C   UNL     1     -24.935   7.624   6.531  1.00  0.00    +0.027 A 
ATOM     15  C   UNL     1     -27.079   7.468   7.593  1.00  0.00    +0.035 A 
ATOM     16  C   UNL     1     -28.741   9.229   7.326  1.00  0.00    +0.032 A 
BRANCH   8  17
ATOM     17  O   UNL     1     -26.228  11.480   4.911  1.00  0.00    -0.507 OA
ATOM     18  H   UNL     1     -26.740  12.245   4.614  1.00  0.00    +0.293 HD
ENDBRANCH   8  17
BRANCH  13  19
ATOM     19  S   UNL     1     -30.742  11.079   7.174  1.00  0.00    +0.294 S 
ATOM     20  O   UNL     1     -31.570   9.984   7.630  1.00  0.00    -0.194 OA
ATOM     21  O   UNL     1     -30.565  12.288   7.946  1.00  0.00    -0.194 OA
BRANCH  19  22
ATOM     22  O   UNL     1     -31.353  11.490   5.739  1.00  0.00    -0.282 OA
ATOM     23  H   UNL     1     -30.860  12.279   5.430  1.00  0.00    +0.234 HD
ENDBRANCH  19  22
ENDBRANCH  13  19
ENDBRANCH   1   7
BRANCH   4  24
ATOM     24  C   UNL     1     -26.265   2.593   9.746  1.00  0.00    +0.043 A 
ATOM     25  C   UNL     1     -27.624   2.374   9.973  1.00  0.00    +0.035 A 
ATOM     26  C   UNL     1     -25.342   1.728  10.334  1.00  0.00    +0.027 A 
ATOM     27  C   UNL     1     -28.073   1.295  10.759  1.00  0.00    -0.011 A 
ATOM     28  C   UNL     1     -25.770   0.649  11.116  1.00  0.00    +0.015 A 
ATOM     29  C   UNL     1     -27.141   0.397  11.335  1.00  0.00    +0.024 A 
ATOM     30  C   UNL     1     -29.447   1.110  10.979  1.00  0.00    +0.032 A 
ATOM     31  C   UNL     1     -27.641  -0.680  12.107  1.00  0.00    +0.124 A 
ATOM     32  C   UNL     1     -29.899   0.046  11.763  1.00  0.00    +0.098 A 
ATOM     33  C   UNL     1     -29.003  -0.850  12.336  1.00  0.00    +0.069 A 
BRANCH  31  34
ATOM     34  O   UNL     1     -26.832  -1.626  12.675  1.00  0.00    -0.507 OA
ATOM     35  H   UNL     1     -26.090  -1.805  12.077  1.00  0.00    +0.293 HD
ENDBRANCH  31  34
BRANCH  32  36
ATOM     36  S   UNL     1     -31.633  -0.136  12.051  1.00  0.00    +0.294 S 
ATOM     37  O   UNL     1     -32.132   1.090  12.636  1.00  0.00    -0.194 OA
ATOM     38  O   UNL     1     -31.842  -1.425  12.671  1.00  0.00    -0.194 OA
BRANCH  36  39
ATOM     39  O   UNL     1     -32.283  -0.180  10.575  1.00  0.00    -0.282 OA
ATOM     40  H   UNL     1     -33.188   0.192  10.644  1.00  0.00    +0.234 HD
ENDBRANCH  36  39
ENDBRANCH  32  36
ENDBRANCH   4  24
TORSDOF 8
ENDMDL
MODEL 5
REMARK VINA RESULT:   -11.171      3.747     11.445
REMARK INTER + INTRA:         -15.235
REMARK INTER:                 -15.634
REMARK INTRA:                   0.398
REMARK UNBOUND:                -0.145
REMARK SMILES O=C(Nc1ccc2c(O)cc(S(=O)(=O)O)cc2c1)Nc1ccc2c(O)cc(S(=O)(=O)O)cc2c1
REMARK SMILES IDX 3 1 2 2 1 3 19 4 4 7 8 8 7 9 10 10 6 11 17 12 11 13 5 14
REMARK SMILES IDX 18 15 16 16 9 17 12 19 13 20 14 21 15 22 20 24 34 25 21 26
REMARK SMILES IDX 33 27 22 28 23 29 32 30 24 31 27 32 26 33 25 34 28 36 29 37
REMARK SMILES IDX 30 38 31 39
REMARK H PARENT 3 5 19 6 9 18 15 23 25 35 31 40
ROOT
ATOM      1  N   UNL     1     -32.253   6.288   8.344  1.00  0.00    -0.308 N 
ATOM      2  C   UNL     1     -31.579   5.168   8.811  1.00  0.00    +0.323 C 
ATOM      3  O   UNL     1     -30.363   5.046   8.846  1.00  0.00    -0.248 OA
ATOM      4  N   UNL     1     -32.487   4.208   9.242  1.00  0.00    -0.308 N 
ATOM      5  H   UNL     1     -33.242   6.177   8.185  1.00  0.00    +0.171 HD
ATOM      6  H   UNL     1     -33.439   4.518   9.352  1.00  0.00    +0.171 HD
ENDROOT
BRANCH   1   7
ATOM      7  C   UNL     1     -31.693   7.509   7.906  1.00  0.00    +0.043 A 
ATOM      8  C   UNL     1     -29.703  11.035   6.551  1.00  0.00    +0.124 A 
ATOM      9  C   UNL     1     -30.404   9.886   6.998  1.00  0.00    +0.024 A 
ATOM     10  C   UNL     1     -28.329  11.015   6.322  1.00  0.00    +0.069 A 
ATOM     11  C   UNL     1     -31.791   9.845   7.266  1.00  0.00    +0.015 A 
ATOM     12  C   UNL     1     -29.667   8.694   7.200  1.00  0.00    -0.011 A 
ATOM     13  C   UNL     1     -27.629   9.832   6.523  1.00  0.00    +0.098 A 
ATOM     14  C   UNL     1     -32.423   8.675   7.707  1.00  0.00    +0.027 A 
ATOM     15  C   UNL     1     -30.319   7.527   7.645  1.00  0.00    +0.035 A 
ATOM     16  C   UNL     1     -28.285   8.676   6.956  1.00  0.00    +0.032 A 
BRANCH   8  17
ATOM     17  O   UNL     1     -30.306  12.239   6.303  1.00  0.00    -0.507 OA
ATOM     18  H   UNL     1     -29.818  12.949   6.745  1.00  0.00    +0.293 HD
ENDBRANCH   8  17
BRANCH  13  19
ATOM     19  S   UNL     1     -25.892   9.757   6.209  1.00  0.00    +0.294 S 
ATOM     20  O   UNL     1     -25.439  11.062   5.779  1.00  0.00    -0.194 OA
ATOM     21  O   UNL     1     -25.278   9.049   7.310  1.00  0.00    -0.194 OA
BRANCH  19  22
ATOM     22  O   UNL     1     -25.780   8.828   4.896  1.00  0.00    -0.282 OA
ATOM     23  H   UNL     1     -24.879   8.956   4.527  1.00  0.00    +0.234 HD
ENDBRANCH  19  22
ENDBRANCH  13  19
ENDBRANCH   1   7
BRANCH   4  24
ATOM     24  C   UNL     1     -32.204   2.908   9.714  1.00  0.00    +0.043 A 
ATOM     25  C   UNL     1     -30.920   2.440   9.998  1.00  0.00    +0.035 A 
ATOM     26  C   UNL     1     -33.283   2.040   9.881  1.00  0.00    +0.027 A 
ATOM     27  C   UNL     1     -30.703   1.129  10.465  1.00  0.00    -0.011 A 
ATOM     28  C   UNL     1     -33.087   0.735  10.347  1.00  0.00    +0.015 A 
ATOM     29  C   UNL     1     -31.799   0.253  10.663  1.00  0.00    +0.024 A 
ATOM     30  C   UNL     1     -29.398   0.684  10.729  1.00  0.00    +0.032 A 
ATOM     31  C   UNL     1     -31.532  -1.051  11.146  1.00  0.00    +0.124 A 
ATOM     32  C   UNL     1     -29.175  -0.617  11.186  1.00  0.00    +0.098 A 
ATOM     33  C   UNL     1     -30.235  -1.493  11.392  1.00  0.00    +0.069 A 
BRANCH  31  34
ATOM     34  O   UNL     1     -32.518  -1.963  11.410  1.00  0.00    -0.507 OA
ATOM     35  H   UNL     1     -32.182  -2.612  12.048  1.00  0.00    +0.293 HD
ENDBRANCH  31  34
BRANCH  32  36
ATOM     36  S   UNL     1     -27.517  -1.157  11.472  1.00  0.00    +0.294 S 
ATOM     37  O   UNL     1     -26.731  -0.871  10.291  1.00  0.00    -0.194 OA
ATOM     38  O   UNL     1     -27.580  -2.478  12.053  1.00  0.00    -0.194 OA
BRANCH  36  39
ATOM     39  O   UNL     1     -26.953  -0.144  12.594  1.00  0.00    -0.282 OA
ATOM     40  H   UNL     1     -26.062   0.147  12.304  1.00  0.00    +0.234 HD
ENDBRANCH  36  39
ENDBRANCH  32  36
ENDBRANCH   4  24
TORSDOF 8
ENDMDL
MODEL 6
REMARK VINA RESULT:   -11.163      6.145      8.236
REMARK INTER + INTRA:         -15.223
REMARK INTER:                 -14.997
REMARK INTRA:                  -0.226
REMARK UNBOUND:                -0.145
REMARK SMILES O=C(Nc1ccc2c(O)cc(S(=O)(=O)O)cc2c1)Nc1ccc2c(O)cc(S(=O)(=O)O)cc2c1
REMARK SMILES IDX 3 1 2 2 1 3 19 4 4 7 8 8 7 9 10 10 6 11 17 12 11 13 5 14
REMARK SMILES IDX 18 15 16 16 9 17 12 19 13 20 14 21 15 22 20 24 34 25 21 26
REMARK SMILES IDX 33 27 22 28 23 29 32 30 24 31 27 32 26 33 25 34 28 36 29 37
REMARK SMILES IDX 30 38 31 39
REMARK H PARENT 3 5 19 6 9 18 15 23 25 35 31 40
ROOT
ATOM      1  N   UNL     1     -28.612   2.885   9.528  1.00  0.00    -0.308 N 
ATOM      2  C   UNL     1     -29.776   2.454  10.150  1.00  0.00    +0.323 C 
ATOM      3  O   UNL     1     -29.817   1.761  11.156  1.00  0.00    -0.248 OA
ATOM      4  N   UNL     1     -30.889   2.933   9.468  1.00  0.00    -0.308 N 
ATOM      5  H   UNL     1     -28.721   3.276   8.605  1.00  0.00    +0.171 HD
ATOM      6  H   UNL     1     -30.714   3.656   8.790  1.00  0.00    +0.171 HD
ENDROOT
BRANCH   1   7
ATOM      7  C   UNL     1     -27.282   2.690   9.961  1.00  0.00    +0.043 A 
ATOM      8  C   UNL     1     -23.276   1.788  11.129  1.00  0.00    +0.124 A 
ATOM      9  C   UNL     1     -24.600   2.131  10.756  1.00  0.00    +0.024 A 
ATOM     10  C   UNL     1     -22.748   0.522  10.889  1.00  0.00    +0.069 A 
ATOM     11  C   UNL     1     -25.200   3.389  10.987  1.00  0.00    +0.015 A 
ATOM     12  C   UNL     1     -25.385   1.144  10.110  1.00  0.00    -0.011 A 
ATOM     13  C   UNL     1     -23.537  -0.428  10.251  1.00  0.00    +0.098 A 
ATOM     14  C   UNL     1     -26.516   3.663  10.591  1.00  0.00    +0.027 A 
ATOM     15  C   UNL     1     -26.707   1.437   9.721  1.00  0.00    +0.035 A 
ATOM     16  C   UNL     1     -24.844  -0.126   9.859  1.00  0.00    +0.032 A 
BRANCH   8  17
ATOM     17  O   UNL     1     -22.414   2.658  11.742  1.00  0.00    -0.507 OA
ATOM     18  H   UNL     1     -22.072   2.264  12.557  1.00  0.00    +0.293 HD
ENDBRANCH   8  17
BRANCH  13  19
ATOM     19  S   UNL     1     -22.892  -2.033   9.895  1.00  0.00    +0.294 S 
ATOM     20  O   UNL     1     -21.909  -2.374  10.900  1.00  0.00    -0.194 OA
ATOM     21  O   UNL     1     -24.010  -2.895   9.584  1.00  0.00    -0.194 OA
BRANCH  19  22
ATOM     22  O   UNL     1     -22.042  -1.814   8.543  1.00  0.00    -0.282 OA
ATOM     23  H   UNL     1     -22.080  -2.655   8.037  1.00  0.00    +0.234 HD
ENDBRANCH  19  22
ENDBRANCH  13  19
ENDBRANCH   1   7
BRANCH   4  24
ATOM     24  C   UNL     1     -32.247   2.656   9.739  1.00  0.00    +0.043 A 
ATOM     25  C   UNL     1     -33.270   3.601   9.654  1.00  0.00    +0.035 A 
ATOM     26  C   UNL     1     -32.567   1.358  10.137  1.00  0.00    +0.027 A 
ATOM     27  C   UNL     1     -34.607   3.263   9.940  1.00  0.00    -0.011 A 
ATOM     28  C   UNL     1     -33.890   1.003  10.423  1.00  0.00    +0.015 A 
ATOM     29  C   UNL     1     -34.941   1.938  10.317  1.00  0.00    +0.024 A 
ATOM     30  C   UNL     1     -35.612   4.239   9.857  1.00  0.00    +0.032 A 
ATOM     31  C   UNL     1     -36.301   1.643  10.581  1.00  0.00    +0.124 A 
ATOM     32  C   UNL     1     -36.939   3.911  10.146  1.00  0.00    +0.098 A 
ATOM     33  C   UNL     1     -37.292   2.618  10.514  1.00  0.00    +0.069 A 
BRANCH  31  34
ATOM     34  O   UNL     1     -36.739   0.390  10.915  1.00  0.00    -0.507 OA
ATOM     35  H   UNL     1     -37.686   0.433  11.121  1.00  0.00    +0.293 HD
ENDBRANCH  31  34
BRANCH  32  36
ATOM     36  S   UNL     1     -38.174   5.174  10.069  1.00  0.00    +0.294 S 
ATOM     37  O   UNL     1     -37.773   6.149   9.078  1.00  0.00    -0.194 OA
ATOM     38  O   UNL     1     -38.505   5.546  11.425  1.00  0.00    -0.194 OA
BRANCH  36  39
ATOM     39  O   UNL     1     -39.459   4.440   9.425  1.00  0.00    -0.282 OA
ATOM     40  H   UNL     1     -40.229   4.645   9.997  1.00  0.00    +0.234 HD
ENDBRANCH  36  39
ENDBRANCH  32  36
ENDBRANCH   4  24
TORSDOF 8
ENDMDL
MODEL 7
REMARK VINA RESULT:   -11.099      1.902     11.546
REMARK INTER + INTRA:         -15.138
REMARK INTER:                 -15.637
REMARK INTRA:                   0.499
REMARK UNBOUND:                -0.145
REMARK SMILES O=C(Nc1ccc2c(O)cc(S(=O)(=O)O)cc2c1)Nc1ccc2c(O)cc(S(=O)(=O)O)cc2c1
REMARK SMILES IDX 3 1 2 2 1 3 19 4 4 7 8 8 7 9 10 10 6 11 17 12 11 13 5 14
REMARK SMILES IDX 18 15 16 16 9 17 12 19 13 20 14 21 15 22 20 24 34 25 21 26
REMARK SMILES IDX 33 27 22 28 23 29 32 30 24 31 27 32 26 33 25 34 28 36 29 37
REMARK SMILES IDX 30 38 31 39
REMARK H PARENT 3 5 19 6 9 18 15 23 25 35 31 40
ROOT
ATOM      1  N   UNL     1     -27.926   4.898   8.913  1.00  0.00    -0.308 N 
ATOM      2  C   UNL     1     -27.232   3.709   9.093  1.00  0.00    +0.323 C 
ATOM      3  O   UNL     1     -26.130   3.463   8.624  1.00  0.00    -0.248 OA
ATOM      4  N   UNL     1     -27.968   2.841   9.890  1.00  0.00    -0.308 N 
ATOM      5  H   UNL     1     -28.897   4.890   9.182  1.00  0.00    +0.171 HD
ATOM      6  H   UNL     1     -28.753   3.244  10.375  1.00  0.00    +0.171 HD
ENDROOT
BRANCH   1   7
ATOM      7  C   UNL     1     -27.482   6.060   8.245  1.00  0.00    +0.043 A 
ATOM      8  C   UNL     1     -26.444   9.710   6.288  1.00  0.00    +0.124 A 
ATOM      9  C   UNL     1     -26.745   8.484   6.934  1.00  0.00    +0.024 A 
ATOM     10  C   UNL     1     -27.399  10.713   6.131  1.00  0.00    +0.069 A 
ATOM     11  C   UNL     1     -25.829   7.423   7.109  1.00  0.00    +0.015 A 
ATOM     12  C   UNL     1     -28.057   8.301   7.436  1.00  0.00    -0.011 A 
ATOM     13  C   UNL     1     -28.678  10.511   6.636  1.00  0.00    +0.098 A 
ATOM     14  C   UNL     1     -26.192   6.235   7.758  1.00  0.00    +0.027 A 
ATOM     15  C   UNL     1     -28.404   7.100   8.083  1.00  0.00    +0.035 A 
ATOM     16  C   UNL     1     -29.011   9.320   7.286  1.00  0.00    +0.032 A 
BRANCH   8  17
ATOM     17  O   UNL     1     -25.210  10.013   5.778  1.00  0.00    -0.507 OA
ATOM     18  H   UNL     1     -25.194   9.834   4.827  1.00  0.00    +0.293 HD
ENDBRANCH   8  17
BRANCH  13  19
ATOM     19  S   UNL     1     -29.906  11.772   6.489  1.00  0.00    +0.294 S 
ATOM     20  O   UNL     1     -30.249  12.245   7.813  1.00  0.00    -0.194 OA
ATOM     21  O   UNL     1     -29.490  12.667   5.433  1.00  0.00    -0.194 OA
BRANCH  19  22
ATOM     22  O   UNL     1     -31.214  10.978   5.982  1.00  0.00    -0.282 OA
ATOM     23  H   UNL     1     -31.201  10.095   6.411  1.00  0.00    +0.234 HD
ENDBRANCH  19  22
ENDBRANCH  13  19
ENDBRANCH   1   7
BRANCH   4  24
ATOM     24  C   UNL     1     -27.643   1.512  10.241  1.00  0.00    +0.043 A 
ATOM     25  C   UNL     1     -28.442   0.696  11.043  1.00  0.00    +0.035 A 
ATOM     26  C   UNL     1     -26.433   1.005   9.767  1.00  0.00    +0.027 A 
ATOM     27  C   UNL     1     -28.061  -0.622  11.359  1.00  0.00    -0.011 A 
ATOM     28  C   UNL     1     -26.039  -0.304  10.069  1.00  0.00    +0.015 A 
ATOM     29  C   UNL     1     -26.846  -1.152  10.857  1.00  0.00    +0.024 A 
ATOM     30  C   UNL     1     -28.881  -1.413  12.178  1.00  0.00    +0.032 A 
ATOM     31  C   UNL     1     -26.512  -2.487  11.192  1.00  0.00    +0.124 A 
ATOM     32  C   UNL     1     -28.505  -2.720  12.502  1.00  0.00    +0.098 A 
ATOM     33  C   UNL     1     -27.320  -3.262  12.018  1.00  0.00    +0.069 A 
BRANCH  31  34
ATOM     34  O   UNL     1     -25.384  -3.110  10.730  1.00  0.00    -0.507 OA
ATOM     35  H   UNL     1     -25.345  -3.013   9.766  1.00  0.00    +0.293 HD
ENDBRANCH  31  34
BRANCH  32  36
ATOM     36  S   UNL     1     -29.542  -3.675  13.567  1.00  0.00    +0.294 S 
ATOM     37  O   UNL     1     -30.572  -4.301  12.766  1.00  0.00    -0.194 OA
ATOM     38  O   UNL     1     -29.852  -2.864  14.721  1.00  0.00    -0.194 OA
BRANCH  36  39
ATOM     39  O   UNL     1     -28.604  -4.895  14.052  1.00  0.00    -0.282 OA
ATOM     40  H   UNL     1     -29.195  -5.635  14.306  1.00  0.00    +0.234 HD
ENDBRANCH  36  39
ENDBRANCH  32  36
ENDBRANCH   4  24
TORSDOF 8
ENDMDL
MODEL 8
REMARK VINA RESULT:   -10.734      5.809     10.568
REMARK INTER + INTRA:         -14.644
REMARK INTER:                 -14.755
REMARK INTRA:                   0.111
REMARK UNBOUND:                -0.145
REMARK SMILES O=C(Nc1ccc2c(O)cc(S(=O)(=O)O)cc2c1)Nc1ccc2c(O)cc(S(=O)(=O)O)cc2c1
REMARK SMILES IDX 3 1 2 2 1 3 19 4 4 7 8 8 7 9 10 10 6 11 17 12 11 13 5 14
REMARK SMILES IDX 18 15 16 16 9 17 12 19 13 20 14 21 15 22 20 24 34 25 21 26
REMARK SMILES IDX 33 27 22 28 23 29 32 30 24 31 27 32 26 33 25 34 28 36 29 37
REMARK SMILES IDX 30 38 31 39
REMARK H PARENT 3 5 19 6 9 18 15 23 25 35 31 40
ROOT
ATOM      1  N   UNL     1     -30.751   2.490   9.909  1.00  0.00    -0.308 N 
ATOM      2  C   UNL     1     -29.377   2.693   9.930  1.00  0.00    +0.323 C 
ATOM      3  O   UNL     1     -28.813   3.709   9.550  1.00  0.00    -0.248 OA
ATOM      4  N   UNL     1     -28.737   1.576  10.453  1.00  0.00    -0.308 N 
ATOM      5  H   UNL     1     -31.062   1.544  10.060  1.00  0.00    +0.171 HD
ATOM      6  H   UNL     1     -29.327   0.904  10.917  1.00  0.00    +0.171 HD
ENDROOT
BRANCH   1   7
ATOM      7  C   UNL     1     -31.751   3.415   9.536  1.00  0.00    +0.043 A 
ATOM      8  C   UNL     1     -34.994   6.027   8.593  1.00  0.00    +0.124 A 
ATOM      9  C   UNL     1     -33.888   5.189   8.886  1.00  0.00    +0.024 A 
ATOM     10  C   UNL     1     -36.282   5.722   9.026  1.00  0.00    +0.069 A 
ATOM     11  C   UNL     1     -32.562   5.432   8.462  1.00  0.00    +0.015 A 
ATOM     12  C   UNL     1     -34.123   4.021   9.652  1.00  0.00    -0.011 A 
ATOM     13  C   UNL     1     -36.486   4.573   9.779  1.00  0.00    +0.098 A 
ATOM     14  C   UNL     1     -31.513   4.561   8.787  1.00  0.00    +0.027 A 
ATOM     15  C   UNL     1     -33.057   3.157   9.967  1.00  0.00    +0.035 A 
ATOM     16  C   UNL     1     -35.421   3.726  10.097  1.00  0.00    +0.032 A 
BRANCH   8  17
ATOM     17  O   UNL     1     -34.892   7.190   7.877  1.00  0.00    -0.507 OA
ATOM     18  H   UNL     1     -34.270   7.074   7.146  1.00  0.00    +0.293 HD
ENDBRANCH   8  17
BRANCH  13  19
ATOM     19  S   UNL     1     -38.099   4.171  10.378  1.00  0.00    +0.294 S 
ATOM     20  O   UNL     1     -38.126   2.772  10.743  1.00  0.00    -0.194 OA
ATOM     21  O   UNL     1     -38.499   5.216  11.293  1.00  0.00    -0.194 OA
BRANCH  19  22
ATOM     22  O   UNL     1     -39.033   4.274   9.067  1.00  0.00    -0.282 OA
ATOM     23  H   UNL     1     -39.366   5.196   9.021  1.00  0.00    +0.234 HD
ENDBRANCH  19  22
ENDBRANCH  13  19
ENDBRANCH   1   7
BRANCH   4  24
ATOM     24  C   UNL     1     -27.346   1.360  10.572  1.00  0.00    +0.043 A 
ATOM     25  C   UNL     1     -26.701   0.183  10.193  1.00  0.00    +0.035 A 
ATOM     26  C   UNL     1     -26.586   2.390  11.126  1.00  0.00    +0.027 A 
ATOM     27  C   UNL     1     -25.309   0.028  10.339  1.00  0.00    -0.011 A 
ATOM     28  C   UNL     1     -25.201   2.256  11.277  1.00  0.00    +0.015 A 
ATOM     29  C   UNL     1     -24.528   1.082  10.875  1.00  0.00    +0.024 A 
ATOM     30  C   UNL     1     -24.692  -1.174   9.959  1.00  0.00    +0.032 A 
ATOM     31  C   UNL     1     -23.130   0.884  10.990  1.00  0.00    +0.124 A 
ATOM     32  C   UNL     1     -23.312  -1.336  10.108  1.00  0.00    +0.098 A 
ATOM     33  C   UNL     1     -22.525  -0.315  10.628  1.00  0.00    +0.069 A 
BRANCH  31  34
ATOM     34  O   UNL     1     -22.278   1.849  11.457  1.00  0.00    -0.507 OA
ATOM     35  H   UNL     1     -21.423   1.440  11.659  1.00  0.00    +0.293 HD
ENDBRANCH  31  34
BRANCH  32  36
ATOM     36  S   UNL     1     -22.573  -2.877   9.656  1.00  0.00    +0.294 S 
ATOM     37  O   UNL     1     -23.412  -3.950  10.144  1.00  0.00    -0.194 OA
ATOM     38  O   UNL     1     -21.165  -2.797   9.971  1.00  0.00    -0.194 OA
BRANCH  36  39
ATOM     39  O   UNL     1     -22.723  -2.938   8.051  1.00  0.00    -0.282 OA
ATOM     40  H   UNL     1     -23.618  -2.603   7.828  1.00  0.00    +0.234 HD
ENDBRANCH  36  39
ENDBRANCH  32  36
ENDBRANCH   4  24
TORSDOF 8
ENDMDL
MODEL 9
REMARK VINA RESULT:   -10.602      2.773     11.609
REMARK INTER + INTRA:         -14.466
REMARK INTER:                 -14.728
REMARK INTRA:                   0.262
REMARK UNBOUND:                -0.145
REMARK SMILES O=C(Nc1ccc2c(O)cc(S(=O)(=O)O)cc2c1)Nc1ccc2c(O)cc(S(=O)(=O)O)cc2c1
REMARK SMILES IDX 3 1 2 2 1 3 19 4 4 7 8 8 7 9 10 10 6 11 17 12 11 13 5 14
REMARK SMILES IDX 18 15 16 16 9 17 12 19 13 20 14 21 15 22 20 24 34 25 21 26
REMARK SMILES IDX 33 27 22 28 23 29 32 30 24 31 27 32 26 33 25 34 28 36 29 37
REMARK SMILES IDX 30 38 31 39
REMARK H PARENT 3 5 19 6 9 18 15 23 25 35 31 40
ROOT
ATOM      1  N   UNL     1     -27.688   4.941   8.797  1.00  0.00    -0.308 N 
ATOM      2  C   UNL     1     -26.935   3.781   8.923  1.00  0.00    +0.323 C 
ATOM      3  O   UNL     1     -25.828   3.608   8.434  1.00  0.00    -0.248 OA
ATOM      4  N   UNL     1     -27.618   2.847   9.693  1.00  0.00    -0.308 N 
ATOM      5  H   UNL     1     -28.654   4.874   9.076  1.00  0.00    +0.171 HD
ATOM      6  H   UNL     1     -28.416   3.193  10.203  1.00  0.00    +0.171 HD
ENDROOT
BRANCH   1   7
ATOM      7  C   UNL     1     -27.309   6.148   8.171  1.00  0.00    +0.043 A 
ATOM      8  C   UNL     1     -26.478   9.913   6.338  1.00  0.00    +0.124 A 
ATOM      9  C   UNL     1     -26.709   8.652   6.943  1.00  0.00    +0.024 A 
ATOM     10  C   UNL     1     -27.494  10.854   6.187  1.00  0.00    +0.069 A 
ATOM     11  C   UNL     1     -25.728   7.649   7.109  1.00  0.00    +0.015 A 
ATOM     12  C   UNL     1     -28.016   8.369   7.411  1.00  0.00    -0.011 A 
ATOM     13  C   UNL     1     -28.766  10.554   6.658  1.00  0.00    +0.098 A 
ATOM     14  C   UNL     1     -26.024   6.422   7.717  1.00  0.00    +0.027 A 
ATOM     15  C   UNL     1     -28.295   7.129   8.018  1.00  0.00    +0.035 A 
ATOM     16  C   UNL     1     -29.033   9.326   7.268  1.00  0.00    +0.032 A 
BRANCH   8  17
ATOM     17  O   UNL     1     -25.257  10.311   5.862  1.00  0.00    -0.507 OA
ATOM     18  H   UNL     1     -24.785  10.810   6.544  1.00  0.00    +0.293 HD
ENDBRANCH   8  17
BRANCH  13  19
ATOM     19  S   UNL     1     -30.073  11.735   6.519  1.00  0.00    +0.294 S 
ATOM     20  O   UNL     1     -30.406  12.220   7.841  1.00  0.00    -0.194 OA
ATOM     21  O   UNL     1     -29.743  12.626   5.430  1.00  0.00    -0.194 OA
BRANCH  19  22
ATOM     22  O   UNL     1     -31.345  10.851   6.071  1.00  0.00    -0.282 OA
ATOM     23  H   UNL     1     -30.997  10.015   5.693  1.00  0.00    +0.234 HD
ENDBRANCH  19  22
ENDBRANCH  13  19
ENDBRANCH   1   7
BRANCH   4  24
ATOM     24  C   UNL     1     -27.225   1.524   9.989  1.00  0.00    +0.043 A 
ATOM     25  C   UNL     1     -25.993   0.974   9.631  1.00  0.00    +0.035 A 
ATOM     26  C   UNL     1     -28.145   0.720  10.662  1.00  0.00    +0.027 A 
ATOM     27  C   UNL     1     -25.661  -0.355   9.954  1.00  0.00    -0.011 A 
ATOM     28  C   UNL     1     -27.832  -0.603  10.993  1.00  0.00    +0.015 A 
ATOM     29  C   UNL     1     -26.582  -1.168  10.662  1.00  0.00    +0.024 A 
ATOM     30  C   UNL     1     -24.419  -0.883   9.569  1.00  0.00    +0.032 A 
ATOM     31  C   UNL     1     -26.197  -2.494  10.976  1.00  0.00    +0.124 A 
ATOM     32  C   UNL     1     -24.086  -2.204   9.880  1.00  0.00    +0.098 A 
ATOM     33  C   UNL     1     -24.971  -3.018  10.577  1.00  0.00    +0.069 A 
BRANCH  31  34
ATOM     34  O   UNL     1     -26.991  -3.350  11.690  1.00  0.00    -0.507 OA
ATOM     35  H   UNL     1     -27.845  -2.921  11.855  1.00  0.00    +0.293 HD
ENDBRANCH  31  34
BRANCH  32  36
ATOM     36  S   UNL     1     -22.529  -2.848   9.346  1.00  0.00    +0.294 S 
ATOM     37  O   UNL     1     -22.744  -3.643   8.157  1.00  0.00    -0.194 OA
ATOM     38  O   UNL     1     -21.848  -3.371  10.508  1.00  0.00    -0.194 OA
BRANCH  36  39
ATOM     39  O   UNL     1     -21.715  -1.554   8.830  1.00  0.00    -0.282 OA
ATOM     40  H   UNL     1     -22.363  -0.825   8.724  1.00  0.00    +0.234 HD
ENDBRANCH  36  39
ENDBRANCH  32  36
ENDBRANCH   4  24
TORSDOF 8
ENDMDL
