MODEL 1
REMARK VINA RESULT:    -9.461      0.000      0.000
REMARK INTER + INTRA:         -11.390
REMARK INTER:                 -11.121
REMARK INTRA:                  -0.270
REMARK UNBOUND:                -0.270
REMARK SMILES c1ccc(NNc2ccc3ccccc3n2)cc1
REMARK SMILES IDX 5 1 6 3 7 5 16 6 8 7 15 8 9 9 14 10 10 11 13 12 11 13 12 14
REMARK SMILES IDX 4 15 3 16 17 17 2 18 18 19 1 20
REMARK H PARENT 5 2 6 4
ROOT
ATOM      1  N   UNL     1     -32.101   8.759   7.907  1.00  0.00    -0.300 N 
ATOM      2  H   UNL     1     -32.442   8.562   8.849  1.00  0.00    +0.188 HD
ENDROOT
BRANCH   1   3
ATOM      3  N   UNL     1     -31.902  10.090   7.640  1.00  0.00    -0.284 N 
ATOM      4  H   UNL     1     -32.185  10.754   8.363  1.00  0.00    +0.189 HD
BRANCH   3   5
ATOM      5  C   UNL     1     -30.722  10.577   7.053  1.00  0.00    +0.145 A 
ATOM      6  N   UNL     1     -29.606   9.840   7.235  1.00  0.00    -0.229 NA
ATOM      7  C   UNL     1     -30.715  11.771   6.342  1.00  0.00    +0.049 A 
ATOM      8  C   UNL     1     -28.450  10.272   6.701  1.00  0.00    +0.073 A 
ATOM      9  C   UNL     1     -29.522  12.221   5.789  1.00  0.00    +0.014 A 
ATOM     10  C   UNL     1     -27.294   9.523   6.878  1.00  0.00    +0.029 A 
ATOM     11  C   UNL     1     -28.356  11.469   5.960  1.00  0.00    +0.000 A 
ATOM     12  C   UNL     1     -26.066   9.924   6.343  1.00  0.00    +0.002 A 
ATOM     13  C   UNL     1     -27.124  11.878   5.422  1.00  0.00    +0.010 A 
ATOM     14  C   UNL     1     -25.981  11.106   5.613  1.00  0.00    +0.001 A 
ENDBRANCH   3   5
ENDBRANCH   1   3
BRANCH   1  15
ATOM     15  C   UNL     1     -32.661   7.885   6.948  1.00  0.00    +0.054 A 
ATOM     16  C   UNL     1     -32.235   7.880   5.613  1.00  0.00    +0.027 A 
ATOM     17  C   UNL     1     -33.584   6.911   7.356  1.00  0.00    +0.027 A 
ATOM     18  C   UNL     1     -32.760   6.966   4.697  1.00  0.00    +0.002 A 
ATOM     19  C   UNL     1     -34.111   5.997   6.441  1.00  0.00    +0.002 A 
ATOM     20  C   UNL     1     -33.703   6.028   5.109  1.00  0.00    +0.000 A 
ENDBRANCH   1  15
TORSDOF 3
ENDMDL
MODEL 2
REMARK VINA RESULT:    -9.233      6.056      7.864
REMARK INTER + INTRA:         -11.122
REMARK INTER:                 -10.773
REMARK INTRA:                  -0.349
REMARK UNBOUND:                -0.270
REMARK SMILES c1ccc(NNc2ccc3ccccc3n2)cc1
REMARK SMILES IDX 5 1 6 3 7 5 16 6 8 7 15 8 9 9 14 10 10 11 13 12 11 13 12 14
REMARK SMILES IDX 4 15 3 16 17 17 2 18 18 19 1 20
REMARK H PARENT 5 2 6 4
ROOT
ATOM      1  N   UNL     1     -26.351   4.354  10.679  1.00  0.00    -0.300 N 
ATOM      2  H   UNL     1     -26.921   4.582  11.494  1.00  0.00    +0.188 HD
ENDROOT
BRANCH   1   3
ATOM      3  N   UNL     1     -26.996   4.486   9.475  1.00  0.00    -0.284 N 
ATOM      4  H   UNL     1     -28.006   4.333   9.474  1.00  0.00    +0.189 HD
BRANCH   3   5
ATOM      5  C   UNL     1     -26.724   5.534   8.579  1.00  0.00    +0.145 A 
ATOM      6  N   UNL     1     -27.653   6.509   8.488  1.00  0.00    -0.229 NA
ATOM      7  C   UNL     1     -25.563   5.541   7.816  1.00  0.00    +0.049 A 
ATOM      8  C   UNL     1     -27.441   7.528   7.635  1.00  0.00    +0.073 A 
ATOM      9  C   UNL     1     -25.341   6.592   6.934  1.00  0.00    +0.014 A 
ATOM     10  C   UNL     1     -28.386   8.540   7.533  1.00  0.00    +0.029 A 
ATOM     11  C   UNL     1     -26.287   7.615   6.829  1.00  0.00    +0.000 A 
ATOM     12  C   UNL     1     -28.216   9.622   6.664  1.00  0.00    +0.002 A 
ATOM     13  C   UNL     1     -26.111   8.701   5.953  1.00  0.00    +0.010 A 
ATOM     14  C   UNL     1     -27.075   9.702   5.872  1.00  0.00    +0.001 A 
ENDBRANCH   3   5
ENDBRANCH   1   3
BRANCH   1  15
ATOM     15  C   UNL     1     -25.468   3.280  10.933  1.00  0.00    +0.054 A 
ATOM     16  C   UNL     1     -25.935   1.988  11.207  1.00  0.00    +0.027 A 
ATOM     17  C   UNL     1     -24.087   3.473  10.795  1.00  0.00    +0.027 A 
ATOM     18  C   UNL     1     -25.044   0.929  11.396  1.00  0.00    +0.002 A 
ATOM     19  C   UNL     1     -23.193   2.416  10.985  1.00  0.00    +0.002 A 
ATOM     20  C   UNL     1     -23.672   1.144  11.291  1.00  0.00    +0.000 A 
ENDBRANCH   1  15
TORSDOF 3
ENDMDL
MODEL 3
REMARK VINA RESULT:    -9.117      1.186      2.092
REMARK INTER + INTRA:         -10.986
REMARK INTER:                 -10.661
REMARK INTRA:                  -0.326
REMARK UNBOUND:                -0.270
REMARK SMILES c1ccc(NNc2ccc3ccccc3n2)cc1
REMARK SMILES IDX 5 1 6 3 7 5 16 6 8 7 15 8 9 9 14 10 10 11 13 12 11 13 12 14
REMARK SMILES IDX 4 15 3 16 17 17 2 18 18 19 1 20
REMARK H PARENT 5 2 6 4
ROOT
ATOM      1  N   UNL     1     -32.335   7.597   8.098  1.00  0.00    -0.300 N 
ATOM      2  H   UNL     1     -32.606   7.473   9.074  1.00  0.00    +0.188 HD
ENDROOT
BRANCH   1   3
ATOM      3  N   UNL     1     -32.081   8.897   7.737  1.00  0.00    -0.284 N 
ATOM      4  H   UNL     1     -32.444   9.626   8.354  1.00  0.00    +0.189 HD
BRANCH   3   5
ATOM      5  C   UNL     1     -30.827   9.323   7.267  1.00  0.00    +0.145 A 
ATOM      6  N   UNL     1     -30.750  10.591   6.814  1.00  0.00    -0.229 NA
ATOM      7  C   UNL     1     -29.736   8.463   7.257  1.00  0.00    +0.049 A 
ATOM      8  C   UNL     1     -29.572  11.041   6.344  1.00  0.00    +0.073 A 
ATOM      9  C   UNL     1     -28.517   8.923   6.772  1.00  0.00    +0.014 A 
ATOM     10  C   UNL     1     -29.477  12.344   5.876  1.00  0.00    +0.029 A 
ATOM     11  C   UNL     1     -28.414  10.236   6.304  1.00  0.00    +0.000 A 
ATOM     12  C   UNL     1     -28.277  12.863   5.378  1.00  0.00    +0.002 A 
ATOM     13  C   UNL     1     -27.206  10.752   5.803  1.00  0.00    +0.010 A 
ATOM     14  C   UNL     1     -27.139  12.064   5.342  1.00  0.00    +0.001 A 
ENDBRANCH   3   5
ENDBRANCH   1   3
BRANCH   1  15
ATOM     15  C   UNL     1     -33.023   6.710   7.239  1.00  0.00    +0.054 A 
ATOM     16  C   UNL     1     -32.897   6.780   5.846  1.00  0.00    +0.027 A 
ATOM     17  C   UNL     1     -33.764   5.653   7.788  1.00  0.00    +0.027 A 
ATOM     18  C   UNL     1     -33.539   5.855   5.020  1.00  0.00    +0.002 A 
ATOM     19  C   UNL     1     -34.408   4.727   6.965  1.00  0.00    +0.002 A 
ATOM     20  C   UNL     1     -34.300   4.832   5.580  1.00  0.00    +0.000 A 
ENDBRANCH   1  15
TORSDOF 3
ENDMDL
MODEL 4
REMARK VINA RESULT:    -8.981      2.861      8.229
REMARK INTER + INTRA:         -10.826
REMARK INTER:                 -10.562
REMARK INTRA:                  -0.263
REMARK UNBOUND:                -0.270
REMARK SMILES c1ccc(NNc2ccc3ccccc3n2)cc1
REMARK SMILES IDX 5 1 6 3 7 5 16 6 8 7 15 8 9 9 14 10 10 11 13 12 11 13 12 14
REMARK SMILES IDX 4 15 3 16 17 17 2 18 18 19 1 20
REMARK H PARENT 5 2 6 4
ROOT
ATOM      1  N   UNL     1     -33.279   8.743   7.679  1.00  0.00    -0.300 N 
ATOM      2  H   UNL     1     -33.569   8.619   8.650  1.00  0.00    +0.188 HD
ENDROOT
BRANCH   1   3
ATOM      3  N   UNL     1     -33.609   7.704   6.847  1.00  0.00    -0.284 N 
ATOM      4  H   UNL     1     -32.886   7.381   6.201  1.00  0.00    +0.189 HD
BRANCH   3   5
ATOM      5  C   UNL     1     -34.319   6.574   7.289  1.00  0.00    +0.145 A 
ATOM      6  N   UNL     1     -35.259   6.782   8.235  1.00  0.00    -0.229 NA
ATOM      7  C   UNL     1     -34.042   5.310   6.783  1.00  0.00    +0.049 A 
ATOM      8  C   UNL     1     -35.957   5.728   8.697  1.00  0.00    +0.073 A 
ATOM      9  C   UNL     1     -34.761   4.219   7.257  1.00  0.00    +0.014 A 
ATOM     10  C   UNL     1     -36.928   5.927   9.669  1.00  0.00    +0.029 A 
ATOM     11  C   UNL     1     -35.743   4.414   8.232  1.00  0.00    +0.000 A 
ATOM     12  C   UNL     1     -37.684   4.869  10.183  1.00  0.00    +0.002 A 
ATOM     13  C   UNL     1     -36.499   3.346   8.747  1.00  0.00    +0.010 A 
ATOM     14  C   UNL     1     -37.468   3.574   9.720  1.00  0.00    +0.001 A 
ENDBRANCH   3   5
ENDBRANCH   1   3
BRANCH   1  15
ATOM     15  C   UNL     1     -32.034   9.406   7.579  1.00  0.00    +0.054 A 
ATOM     16  C   UNL     1     -30.888   8.761   7.097  1.00  0.00    +0.027 A 
ATOM     17  C   UNL     1     -31.959  10.778   7.857  1.00  0.00    +0.027 A 
ATOM     18  C   UNL     1     -29.684   9.453   6.951  1.00  0.00    +0.002 A 
ATOM     19  C   UNL     1     -30.755  11.473   7.713  1.00  0.00    +0.002 A 
ATOM     20  C   UNL     1     -29.616  10.808   7.264  1.00  0.00    +0.000 A 
ENDBRANCH   1  15
TORSDOF 3
ENDMDL
MODEL 5
REMARK VINA RESULT:    -8.820      4.589      6.413
REMARK INTER + INTRA:         -10.636
REMARK INTER:                 -10.315
REMARK INTRA:                  -0.321
REMARK UNBOUND:                -0.270
REMARK SMILES c1ccc(NNc2ccc3ccccc3n2)cc1
REMARK SMILES IDX 5 1 6 3 7 5 16 6 8 7 15 8 9 9 14 10 10 11 13 12 11 13 12 14
REMARK SMILES IDX 4 15 3 16 17 17 2 18 18 19 1 20
REMARK H PARENT 5 2 6 4
ROOT
ATOM      1  N   UNL     1     -25.628   5.122   7.698  1.00  0.00    -0.300 N 
ATOM      2  H   UNL     1     -25.367   4.478   6.950  1.00  0.00    +0.188 HD
ENDROOT
BRANCH   1   3
ATOM      3  N   UNL     1     -24.965   6.323   7.674  1.00  0.00    -0.284 N 
ATOM      4  H   UNL     1     -24.010   6.316   7.311  1.00  0.00    +0.189 HD
BRANCH   3   5
ATOM      5  C   UNL     1     -25.573   7.517   7.248  1.00  0.00    +0.145 A 
ATOM      6  N   UNL     1     -26.899   7.632   7.470  1.00  0.00    -0.229 NA
ATOM      7  C   UNL     1     -24.836   8.509   6.614  1.00  0.00    +0.049 A 
ATOM      8  C   UNL     1     -27.527   8.754   7.070  1.00  0.00    +0.073 A 
ATOM      9  C   UNL     1     -25.481   9.669   6.199  1.00  0.00    +0.014 A 
ATOM     10  C   UNL     1     -28.890   8.889   7.294  1.00  0.00    +0.029 A 
ATOM     11  C   UNL     1     -26.853   9.812   6.426  1.00  0.00    +0.000 A 
ATOM     12  C   UNL     1     -29.592  10.032   6.901  1.00  0.00    +0.002 A 
ATOM     13  C   UNL     1     -27.554  10.963   6.026  1.00  0.00    +0.010 A 
ATOM     14  C   UNL     1     -28.922  11.072   6.265  1.00  0.00    +0.001 A 
ENDBRANCH   3   5
ENDBRANCH   1   3
BRANCH   1  15
ATOM     15  C   UNL     1     -25.893   4.445   8.910  1.00  0.00    +0.054 A 
ATOM     16  C   UNL     1     -25.038   4.544  10.016  1.00  0.00    +0.027 A 
ATOM     17  C   UNL     1     -27.101   3.749   9.062  1.00  0.00    +0.027 A 
ATOM     18  C   UNL     1     -25.352   3.915  11.223  1.00  0.00    +0.002 A 
ATOM     19  C   UNL     1     -27.416   3.118  10.268  1.00  0.00    +0.002 A 
ATOM     20  C   UNL     1     -26.539   3.197  11.347  1.00  0.00    +0.000 A 
ENDBRANCH   1  15
TORSDOF 3
ENDMDL
MODEL 6
REMARK VINA RESULT:    -8.764      5.699      6.759
REMARK INTER + INTRA:         -10.571
REMARK INTER:                 -10.354
REMARK INTRA:                  -0.217
REMARK UNBOUND:                -0.270
REMARK SMILES c1ccc(NNc2ccc3ccccc3n2)cc1
REMARK SMILES IDX 5 1 6 3 7 5 16 6 8 7 15 8 9 9 14 10 10 11 13 12 11 13 12 14
REMARK SMILES IDX 4 15 3 16 17 17 2 18 18 19 1 20
REMARK H PARENT 5 2 6 4
ROOT
ATOM      1  N   UNL     1     -27.805   3.741   9.478  1.00  0.00    -0.300 N 
ATOM      2  H   UNL     1     -27.867   3.298   8.560  1.00  0.00    +0.188 HD
ENDROOT
BRANCH   1   3
ATOM      3  N   UNL     1     -26.826   4.697   9.585  1.00  0.00    -0.284 N 
ATOM      4  H   UNL     1     -25.905   4.382   9.896  1.00  0.00    +0.189 HD
BRANCH   3   5
ATOM      5  C   UNL     1     -26.629   5.694   8.614  1.00  0.00    +0.145 A 
ATOM      6  N   UNL     1     -27.614   6.606   8.476  1.00  0.00    -0.229 NA
ATOM      7  C   UNL     1     -25.483   5.713   7.830  1.00  0.00    +0.049 A 
ATOM      8  C   UNL     1     -27.475   7.573   7.551  1.00  0.00    +0.073 A 
ATOM      9  C   UNL     1     -25.336   6.711   6.873  1.00  0.00    +0.014 A 
ATOM     10  C   UNL     1     -28.479   8.520   7.399  1.00  0.00    +0.029 A 
ATOM     11  C   UNL     1     -26.341   7.670   6.718  1.00  0.00    +0.000 A 
ATOM     12  C   UNL     1     -28.385   9.548   6.455  1.00  0.00    +0.002 A 
ATOM     13  C   UNL     1     -26.243   8.700   5.767  1.00  0.00    +0.010 A 
ATOM     14  C   UNL     1     -27.264   9.637   5.636  1.00  0.00    +0.001 A 
ENDBRANCH   3   5
ENDBRANCH   1   3
BRANCH   1  15
ATOM     15  C   UNL     1     -28.069   2.829  10.525  1.00  0.00    +0.054 A 
ATOM     16  C   UNL     1     -27.278   2.779  11.681  1.00  0.00    +0.027 A 
ATOM     17  C   UNL     1     -29.219   2.029  10.470  1.00  0.00    +0.027 A 
ATOM     18  C   UNL     1     -27.595   1.911  12.729  1.00  0.00    +0.002 A 
ATOM     19  C   UNL     1     -29.537   1.159  11.517  1.00  0.00    +0.002 A 
ATOM     20  C   UNL     1     -28.721   1.097  12.644  1.00  0.00    +0.000 A 
ENDBRANCH   1  15
TORSDOF 3
ENDMDL
MODEL 7
REMARK VINA RESULT:    -8.605      1.487      2.234
REMARK INTER + INTRA:         -10.384
REMARK INTER:                 -10.173
REMARK INTRA:                  -0.211
REMARK UNBOUND:                -0.270
REMARK SMILES c1ccc(NNc2ccc3ccccc3n2)cc1
REMARK SMILES IDX 5 1 6 3 7 5 16 6 8 7 15 8 9 9 14 10 10 11 13 12 11 13 12 14
REMARK SMILES IDX 4 15 3 16 17 17 2 18 18 19 1 20
REMARK H PARENT 5 2 6 4
ROOT
ATOM      1  N   UNL     1     -32.108   7.826   7.210  1.00  0.00    -0.300 N 
ATOM      2  H   UNL     1     -32.408   8.005   6.251  1.00  0.00    +0.188 HD
ENDROOT
BRANCH   1   3
ATOM      3  N   UNL     1     -30.849   8.282   7.509  1.00  0.00    -0.284 N 
ATOM      4  H   UNL     1     -30.095   7.591   7.506  1.00  0.00    +0.189 HD
BRANCH   3   5
ATOM      5  C   UNL     1     -30.331   9.479   6.986  1.00  0.00    +0.145 A 
ATOM      6  N   UNL     1     -29.020   9.482   6.666  1.00  0.00    -0.229 NA
ATOM      7  C   UNL     1     -31.135  10.600   6.831  1.00  0.00    +0.049 A 
ATOM      8  C   UNL     1     -28.477  10.609   6.171  1.00  0.00    +0.073 A 
ATOM      9  C   UNL     1     -30.578  11.767   6.320  1.00  0.00    +0.014 A 
ATOM     10  C   UNL     1     -27.130  10.627   5.835  1.00  0.00    +0.029 A 
ATOM     11  C   UNL     1     -29.224  11.789   5.976  1.00  0.00    +0.000 A 
ATOM     12  C   UNL     1     -26.514  11.770   5.315  1.00  0.00    +0.002 A 
ATOM     13  C   UNL     1     -28.610  12.942   5.456  1.00  0.00    +0.010 A 
ATOM     14  C   UNL     1     -27.257  12.931   5.126  1.00  0.00    +0.001 A 
ENDBRANCH   3   5
ENDBRANCH   1   3
BRANCH   1  15
ATOM     15  C   UNL     1     -32.580   6.583   7.690  1.00  0.00    +0.054 A 
ATOM     16  C   UNL     1     -31.941   5.901   8.734  1.00  0.00    +0.027 A 
ATOM     17  C   UNL     1     -33.785   6.064   7.195  1.00  0.00    +0.027 A 
ATOM     18  C   UNL     1     -32.461   4.703   9.231  1.00  0.00    +0.002 A 
ATOM     19  C   UNL     1     -34.306   4.866   7.690  1.00  0.00    +0.002 A 
ATOM     20  C   UNL     1     -33.640   4.182   8.705  1.00  0.00    +0.000 A 
ENDBRANCH   1  15
TORSDOF 3
ENDMDL
MODEL 8
REMARK VINA RESULT:    -8.602      1.833      3.180
REMARK INTER + INTRA:         -10.381
REMARK INTER:                 -10.294
REMARK INTRA:                  -0.087
REMARK UNBOUND:                -0.270
REMARK SMILES c1ccc(NNc2ccc3ccccc3n2)cc1
REMARK SMILES IDX 5 1 6 3 7 5 16 6 8 7 15 8 9 9 14 10 10 11 13 12 11 13 12 14
REMARK SMILES IDX 4 15 3 16 17 17 2 18 18 19 1 20
REMARK H PARENT 5 2 6 4
ROOT
ATOM      1  N   UNL     1     -33.855   7.415   7.149  1.00  0.00    -0.300 N 
ATOM      2  H   UNL     1     -33.663   7.281   6.155  1.00  0.00    +0.188 HD
ENDROOT
BRANCH   1   3
ATOM      3  N   UNL     1     -33.220   8.493   7.712  1.00  0.00    -0.284 N 
ATOM      4  H   UNL     1     -33.314   8.607   8.723  1.00  0.00    +0.189 HD
BRANCH   3   5
ATOM      5  C   UNL     1     -31.914   8.874   7.360  1.00  0.00    +0.145 A 
ATOM      6  N   UNL     1     -31.741  10.156   6.975  1.00  0.00    -0.229 NA
ATOM      7  C   UNL     1     -30.868   7.960   7.392  1.00  0.00    +0.049 A 
ATOM      8  C   UNL     1     -30.509  10.564   6.618  1.00  0.00    +0.073 A 
ATOM      9  C   UNL     1     -29.594   8.378   7.024  1.00  0.00    +0.014 A 
ATOM     10  C   UNL     1     -30.315  11.880   6.222  1.00  0.00    +0.029 A 
ATOM     11  C   UNL     1     -29.392   9.703   6.628  1.00  0.00    +0.000 A 
ATOM     12  C   UNL     1     -29.056  12.357   5.843  1.00  0.00    +0.002 A 
ATOM     13  C   UNL     1     -28.125  10.177   6.246  1.00  0.00    +0.010 A 
ATOM     14  C   UNL     1     -27.959  11.503   5.855  1.00  0.00    +0.001 A 
ENDBRANCH   3   5
ENDBRANCH   1   3
BRANCH   1  15
ATOM     15  C   UNL     1     -33.980   6.185   7.835  1.00  0.00    +0.054 A 
ATOM     16  C   UNL     1     -32.886   5.572   8.460  1.00  0.00    +0.027 A 
ATOM     17  C   UNL     1     -35.249   5.613   8.001  1.00  0.00    +0.027 A 
ATOM     18  C   UNL     1     -33.045   4.388   9.184  1.00  0.00    +0.002 A 
ATOM     19  C   UNL     1     -35.411   4.428   8.723  1.00  0.00    +0.002 A 
ATOM     20  C   UNL     1     -34.307   3.812   9.310  1.00  0.00    +0.000 A 
ENDBRANCH   1  15
TORSDOF 3
ENDMDL
MODEL 9
REMARK VINA RESULT:    -7.396      8.434     10.236
REMARK INTER + INTRA:          -8.963
REMARK INTER:                  -8.660
REMARK INTRA:                  -0.303
REMARK UNBOUND:                -0.270
REMARK SMILES c1ccc(NNc2ccc3ccccc3n2)cc1
REMARK SMILES IDX 5 1 6 3 7 5 16 6 8 7 15 8 9 9 14 10 10 11 13 12 11 13 12 14
REMARK SMILES IDX 4 15 3 16 17 17 2 18 18 19 1 20
REMARK H PARENT 5 2 6 4
ROOT
ATOM      1  N   UNL     1     -33.031   1.630   9.789  1.00  0.00    -0.300 N 
ATOM      2  H   UNL     1     -33.174   1.310   8.830  1.00  0.00    +0.188 HD
ENDROOT
BRANCH   1   3
ATOM      3  N   UNL     1     -32.966   2.993   9.933  1.00  0.00    -0.284 N 
ATOM      4  H   UNL     1     -32.440   3.507   9.223  1.00  0.00    +0.189 HD
BRANCH   3   5
ATOM      5  C   UNL     1     -34.081   3.773  10.284  1.00  0.00    +0.145 A 
ATOM      6  N   UNL     1     -35.171   3.660   9.497  1.00  0.00    -0.229 NA
ATOM      7  C   UNL     1     -34.040   4.629  11.378  1.00  0.00    +0.049 A 
ATOM      8  C   UNL     1     -36.259   4.395   9.788  1.00  0.00    +0.073 A 
ATOM      9  C   UNL     1     -35.163   5.390  11.682  1.00  0.00    +0.014 A 
ATOM     10  C   UNL     1     -37.389   4.288   8.989  1.00  0.00    +0.029 A 
ATOM     11  C   UNL     1     -36.305   5.283  10.883  1.00  0.00    +0.000 A 
ATOM     12  C   UNL     1     -38.548   5.027   9.246  1.00  0.00    +0.002 A 
ATOM     13  C   UNL     1     -37.466   6.030  11.146  1.00  0.00    +0.010 A 
ATOM     14  C   UNL     1     -38.586   5.901  10.328  1.00  0.00    +0.001 A 
ENDBRANCH   3   5
ENDBRANCH   1   3
BRANCH   1  15
ATOM     15  C   UNL     1     -32.178   0.766  10.513  1.00  0.00    +0.054 A 
ATOM     16  C   UNL     1     -31.378  -0.191   9.875  1.00  0.00    +0.027 A 
ATOM     17  C   UNL     1     -32.031   0.941  11.897  1.00  0.00    +0.027 A 
ATOM     18  C   UNL     1     -30.498  -0.992  10.606  1.00  0.00    +0.002 A 
ATOM     19  C   UNL     1     -31.153   0.140  12.630  1.00  0.00    +0.002 A 
ATOM     20  C   UNL     1     -30.390  -0.831  11.985  1.00  0.00    +0.000 A 
ENDBRANCH   1  15
TORSDOF 3
ENDMDL
