MODEL 1
REMARK VINA RESULT:    -9.534      0.000      0.000
REMARK INTER + INTRA:          -9.534
REMARK INTER:                  -9.534
REMARK INTRA:                   0.000
REMARK UNBOUND:                 0.000
REMARK SMILES Brc1c2ccccc2cc2ccccc12
REMARK SMILES IDX 1 1 2 2 3 3 4 4 5 5 6 6 7 7 8 8 9 9 10 10 15 11 14 12 13 13
REMARK SMILES IDX 12 14 11 15
REMARK H PARENT
ROOT
ATOM      1 Br   UNL     1     -26.056  11.483   5.440  1.00  0.00    -0.049 Br
ATOM      2  C   UNL     1     -27.174  10.152   6.274  1.00  0.00    +0.033 A 
ATOM      3  C   UNL     1     -26.591   8.907   6.662  1.00  0.00    -0.004 A 
ATOM      4  C   UNL     1     -25.228   8.547   6.486  1.00  0.00    +0.010 A 
ATOM      5  C   UNL     1     -24.728   7.307   6.891  1.00  0.00    +0.001 A 
ATOM      6  C   UNL     1     -25.573   6.383   7.486  1.00  0.00    +0.001 A 
ATOM      7  C   UNL     1     -26.914   6.704   7.675  1.00  0.00    +0.009 A 
ATOM      8  C   UNL     1     -27.430   7.948   7.271  1.00  0.00    -0.017 A 
ATOM      9  C   UNL     1     -28.786   8.235   7.477  1.00  0.00    +0.017 A 
ATOM     10  C   UNL     1     -29.356   9.456   7.096  1.00  0.00    -0.017 A 
ATOM     11  C   UNL     1     -28.556  10.447   6.482  1.00  0.00    -0.004 A 
ATOM     12  C   UNL     1     -29.201  11.660   6.123  1.00  0.00    +0.010 A 
ATOM     13  C   UNL     1     -30.562  11.878   6.359  1.00  0.00    +0.001 A 
ATOM     14  C   UNL     1     -31.323  10.890   6.962  1.00  0.00    +0.001 A 
ATOM     15  C   UNL     1     -30.723   9.688   7.328  1.00  0.00    +0.009 A 
ENDROOT
TORSDOF 0
ENDMDL
MODEL 2
REMARK VINA RESULT:    -9.520      0.027      4.765
REMARK INTER + INTRA:          -9.520
REMARK INTER:                  -9.520
REMARK INTRA:                   0.000
REMARK UNBOUND:                 0.000
REMARK SMILES Brc1c2ccccc2cc2ccccc12
REMARK SMILES IDX 1 1 2 2 3 3 4 4 5 5 6 6 7 7 8 8 9 9 10 10 15 11 14 12 13 13
REMARK SMILES IDX 12 14 11 15
REMARK H PARENT
ROOT
ATOM      1 Br   UNL     1     -26.058  11.494   5.441  1.00  0.00    -0.049 Br
ATOM      2  C   UNL     1     -27.169  10.158   6.276  1.00  0.00    +0.033 A 
ATOM      3  C   UNL     1     -28.554  10.441   6.477  1.00  0.00    -0.004 A 
ATOM      4  C   UNL     1     -29.209  11.648   6.110  1.00  0.00    +0.010 A 
ATOM      5  C   UNL     1     -30.571  11.855   6.339  1.00  0.00    +0.001 A 
ATOM      6  C   UNL     1     -31.328  10.863   6.943  1.00  0.00    +0.001 A 
ATOM      7  C   UNL     1     -30.719   9.667   7.315  1.00  0.00    +0.009 A 
ATOM      8  C   UNL     1     -29.348   9.446   7.091  1.00  0.00    -0.017 A 
ATOM      9  C   UNL     1     -28.770   8.231   7.478  1.00  0.00    +0.017 A 
ATOM     10  C   UNL     1     -27.411   7.954   7.280  1.00  0.00    -0.017 A 
ATOM     11  C   UNL     1     -26.577   8.919   6.671  1.00  0.00    -0.004 A 
ATOM     12  C   UNL     1     -25.210   8.570   6.502  1.00  0.00    +0.010 A 
ATOM     13  C   UNL     1     -24.701   7.335   6.915  1.00  0.00    +0.001 A 
ATOM     14  C   UNL     1     -25.541   6.408   7.510  1.00  0.00    +0.001 A 
ATOM     15  C   UNL     1     -26.887   6.716   7.690  1.00  0.00    +0.009 A 
ENDROOT
TORSDOF 0
ENDMDL
MODEL 3
REMARK VINA RESULT:    -9.507      1.802      5.270
REMARK INTER + INTRA:          -9.507
REMARK INTER:                  -9.507
REMARK INTRA:                   0.000
REMARK UNBOUND:                 0.000
REMARK SMILES Brc1c2ccccc2cc2ccccc12
REMARK SMILES IDX 1 1 2 2 3 3 4 4 5 5 6 6 7 7 8 8 9 9 10 10 15 11 14 12 13 13
REMARK SMILES IDX 12 14 11 15
REMARK H PARENT
ROOT
ATOM      1 Br   UNL     1     -30.121   8.581   7.317  1.00  0.00    -0.049 Br
ATOM      2  C   UNL     1     -28.329   9.113   6.849  1.00  0.00    +0.033 A 
ATOM      3  C   UNL     1     -28.120  10.405   6.274  1.00  0.00    -0.004 A 
ATOM      4  C   UNL     1     -29.138  11.360   6.008  1.00  0.00    +0.010 A 
ATOM      5  C   UNL     1     -28.860  12.607   5.442  1.00  0.00    +0.001 A 
ATOM      6  C   UNL     1     -27.553  12.942   5.123  1.00  0.00    +0.001 A 
ATOM      7  C   UNL     1     -26.531  12.031   5.371  1.00  0.00    +0.009 A 
ATOM      8  C   UNL     1     -26.798  10.772   5.939  1.00  0.00    -0.017 A 
ATOM      9  C   UNL     1     -25.743   9.881   6.174  1.00  0.00    +0.017 A 
ATOM     10  C   UNL     1     -25.949   8.615   6.738  1.00  0.00    -0.017 A 
ATOM     11  C   UNL     1     -27.254   8.203   7.089  1.00  0.00    -0.004 A 
ATOM     12  C   UNL     1     -27.387   6.907   7.655  1.00  0.00    +0.010 A 
ATOM     13  C   UNL     1     -26.287   6.068   7.861  1.00  0.00    +0.001 A 
ATOM     14  C   UNL     1     -25.018   6.498   7.508  1.00  0.00    +0.001 A 
ATOM     15  C   UNL     1     -24.852   7.762   6.950  1.00  0.00    +0.009 A 
ENDROOT
TORSDOF 0
ENDMDL
MODEL 4
REMARK VINA RESULT:    -9.506      1.797      2.954
REMARK INTER + INTRA:          -9.506
REMARK INTER:                  -9.506
REMARK INTRA:                   0.000
REMARK UNBOUND:                 0.000
REMARK SMILES Brc1c2ccccc2cc2ccccc12
REMARK SMILES IDX 1 1 2 2 3 3 4 4 5 5 6 6 7 7 8 8 9 9 10 10 15 11 14 12 13 13
REMARK SMILES IDX 12 14 11 15
REMARK H PARENT
ROOT
ATOM      1 Br   UNL     1     -30.120   8.583   7.318  1.00  0.00    -0.049 Br
ATOM      2  C   UNL     1     -28.335   9.135   6.847  1.00  0.00    +0.033 A 
ATOM      3  C   UNL     1     -27.251   8.234   7.077  1.00  0.00    -0.004 A 
ATOM      4  C   UNL     1     -27.368   6.933   7.637  1.00  0.00    +0.010 A 
ATOM      5  C   UNL     1     -26.260   6.105   7.833  1.00  0.00    +0.001 A 
ATOM      6  C   UNL     1     -24.996   6.549   7.479  1.00  0.00    +0.001 A 
ATOM      7  C   UNL     1     -24.844   7.818   6.927  1.00  0.00    +0.009 A 
ATOM      8  C   UNL     1     -25.951   8.662   6.724  1.00  0.00    -0.017 A 
ATOM      9  C   UNL     1     -25.760   9.933   6.167  1.00  0.00    +0.017 A 
ATOM     10  C   UNL     1     -26.824  10.816   5.942  1.00  0.00    -0.017 A 
ATOM     11  C   UNL     1     -28.142  10.432   6.279  1.00  0.00    -0.004 A 
ATOM     12  C   UNL     1     -29.171  11.378   6.022  1.00  0.00    +0.010 A 
ATOM     13  C   UNL     1     -28.906  12.632   5.463  1.00  0.00    +0.001 A 
ATOM     14  C   UNL     1     -27.604  12.982   5.142  1.00  0.00    +0.001 A 
ATOM     15  C   UNL     1     -26.572  12.079   5.380  1.00  0.00    +0.009 A 
ENDROOT
TORSDOF 0
ENDMDL
MODEL 5
REMARK VINA RESULT:    -8.967      2.246      4.251
REMARK INTER + INTRA:          -8.967
REMARK INTER:                  -8.967
REMARK INTRA:                   0.000
REMARK UNBOUND:                 0.000
REMARK SMILES Brc1c2ccccc2cc2ccccc12
REMARK SMILES IDX 1 1 2 2 3 3 4 4 5 5 6 6 7 7 8 8 9 9 10 10 15 11 14 12 13 13
REMARK SMILES IDX 12 14 11 15
REMARK H PARENT
ROOT
ATOM      1 Br   UNL     1     -26.897   7.855   6.943  1.00  0.00    -0.049 Br
ATOM      2  C   UNL     1     -28.332   9.128   6.753  1.00  0.00    +0.033 A 
ATOM      3  C   UNL     1     -29.653   8.740   7.132  1.00  0.00    -0.004 A 
ATOM      4  C   UNL     1     -30.020   7.468   7.649  1.00  0.00    +0.010 A 
ATOM      5  C   UNL     1     -31.337   7.159   7.999  1.00  0.00    +0.001 A 
ATOM      6  C   UNL     1     -32.333   8.109   7.843  1.00  0.00    +0.001 A 
ATOM      7  C   UNL     1     -32.009   9.366   7.339  1.00  0.00    +0.009 A 
ATOM      8  C   UNL     1     -30.688   9.690   6.983  1.00  0.00    -0.017 A 
ATOM      9  C   UNL     1     -30.399  10.965   6.479  1.00  0.00    +0.017 A 
ATOM     10  C   UNL     1     -29.103  11.345   6.109  1.00  0.00    -0.017 A 
ATOM     11  C   UNL     1     -28.036  10.428   6.239  1.00  0.00    -0.004 A 
ATOM     12  C   UNL     1     -26.749  10.882   5.843  1.00  0.00    +0.010 A 
ATOM     13  C   UNL     1     -26.534  12.171   5.347  1.00  0.00    +0.001 A 
ATOM     14  C   UNL     1     -27.599  13.050   5.230  1.00  0.00    +0.001 A 
ATOM     15  C   UNL     1     -28.874  12.638   5.609  1.00  0.00    +0.009 A 
ENDROOT
TORSDOF 0
ENDMDL
MODEL 6
REMARK VINA RESULT:    -8.266      1.610      4.550
REMARK INTER + INTRA:          -8.266
REMARK INTER:                  -8.266
REMARK INTRA:                   0.000
REMARK UNBOUND:                 0.000
REMARK SMILES Brc1c2ccccc2cc2ccccc12
REMARK SMILES IDX 1 1 2 2 3 3 4 4 5 5 6 6 7 7 8 8 9 9 10 10 15 11 14 12 13 13
REMARK SMILES IDX 12 14 11 15
REMARK H PARENT
ROOT
ATOM      1 Br   UNL     1     -29.642  12.128   6.075  1.00  0.00    -0.049 Br
ATOM      2  C   UNL     1     -29.167  10.332   6.590  1.00  0.00    +0.033 A 
ATOM      3  C   UNL     1     -30.200   9.439   7.011  1.00  0.00    -0.004 A 
ATOM      4  C   UNL     1     -31.582   9.759   7.088  1.00  0.00    +0.010 A 
ATOM      5  C   UNL     1     -32.538   8.832   7.510  1.00  0.00    +0.001 A 
ATOM      6  C   UNL     1     -32.146   7.552   7.871  1.00  0.00    +0.001 A 
ATOM      7  C   UNL     1     -30.799   7.204   7.806  1.00  0.00    +0.009 A 
ATOM      8  C   UNL     1     -29.827   8.128   7.383  1.00  0.00    -0.017 A 
ATOM      9  C   UNL     1     -28.481   7.743   7.331  1.00  0.00    +0.017 A 
ATOM     10  C   UNL     1     -27.470   8.619   6.918  1.00  0.00    -0.017 A 
ATOM     11  C   UNL     1     -27.794   9.941   6.537  1.00  0.00    -0.004 A 
ATOM     12  C   UNL     1     -26.717  10.773   6.129  1.00  0.00    +0.010 A 
ATOM     13  C   UNL     1     -25.395  10.320   6.103  1.00  0.00    +0.001 A 
ATOM     14  C   UNL     1     -25.105   9.019   6.482  1.00  0.00    +0.001 A 
ATOM     15  C   UNL     1     -26.136   8.176   6.887  1.00  0.00    +0.009 A 
ENDROOT
TORSDOF 0
ENDMDL
MODEL 7
REMARK VINA RESULT:    -7.611      1.958      4.344
REMARK INTER + INTRA:          -7.611
REMARK INTER:                  -7.611
REMARK INTRA:                   0.000
REMARK UNBOUND:                 0.000
REMARK SMILES Brc1c2ccccc2cc2ccccc12
REMARK SMILES IDX 1 1 2 2 3 3 4 4 5 5 6 6 7 7 8 8 9 9 10 10 15 11 14 12 13 13
REMARK SMILES IDX 12 14 11 15
REMARK H PARENT
ROOT
ATOM      1 Br   UNL     1     -31.212  10.434   6.604  1.00  0.00    -0.049 Br
ATOM      2  C   UNL     1     -29.418   9.744   6.747  1.00  0.00    +0.033 A 
ATOM      3  C   UNL     1     -28.335  10.529   6.246  1.00  0.00    -0.004 A 
ATOM      4  C   UNL     1     -28.459  11.806   5.635  1.00  0.00    +0.010 A 
ATOM      5  C   UNL     1     -27.352  12.518   5.167  1.00  0.00    +0.001 A 
ATOM      6  C   UNL     1     -26.082  11.978   5.293  1.00  0.00    +0.001 A 
ATOM      7  C   UNL     1     -25.923  10.729   5.887  1.00  0.00    +0.009 A 
ATOM      8  C   UNL     1     -27.030  10.002   6.361  1.00  0.00    -0.017 A 
ATOM      9  C   UNL     1     -26.832   8.748   6.953  1.00  0.00    +0.017 A 
ATOM     10  C   UNL     1     -27.894   7.979   7.444  1.00  0.00    -0.017 A 
ATOM     11  C   UNL     1     -29.219   8.464   7.350  1.00  0.00    -0.004 A 
ATOM     12  C   UNL     1     -30.245   7.631   7.869  1.00  0.00    +0.010 A 
ATOM     13  C   UNL     1     -29.974   6.387   8.447  1.00  0.00    +0.001 A 
ATOM     14  C   UNL     1     -28.666   5.935   8.526  1.00  0.00    +0.001 A 
ATOM     15  C   UNL     1     -27.635   6.727   8.028  1.00  0.00    +0.009 A 
ENDROOT
TORSDOF 0
ENDMDL
MODEL 8
REMARK VINA RESULT:    -7.492      7.871      9.587
REMARK INTER + INTRA:          -7.492
REMARK INTER:                  -7.492
REMARK INTRA:                   0.000
REMARK UNBOUND:                 0.000
REMARK SMILES Brc1c2ccccc2cc2ccccc12
REMARK SMILES IDX 1 1 2 2 3 3 4 4 5 5 6 6 7 7 8 8 9 9 10 10 15 11 14 12 13 13
REMARK SMILES IDX 12 14 11 15
REMARK H PARENT
ROOT
ATOM      1 Br   UNL     1     -33.967   2.915  11.430  1.00  0.00    -0.049 Br
ATOM      2  C   UNL     1     -34.786   4.127  10.176  1.00  0.00    +0.033 A 
ATOM      3  C   UNL     1     -33.947   4.910   9.325  1.00  0.00    -0.004 A 
ATOM      4  C   UNL     1     -32.526   4.878   9.316  1.00  0.00    +0.010 A 
ATOM      5  C   UNL     1     -31.769   5.674   8.453  1.00  0.00    +0.001 A 
ATOM      6  C   UNL     1     -32.405   6.531   7.569  1.00  0.00    +0.001 A 
ATOM      7  C   UNL     1     -33.797   6.587   7.550  1.00  0.00    +0.009 A 
ATOM      8  C   UNL     1     -34.570   5.791   8.413  1.00  0.00    -0.017 A 
ATOM      9  C   UNL     1     -35.968   5.874   8.366  1.00  0.00    +0.017 A 
ATOM     10  C   UNL     1     -36.790   5.106   9.200  1.00  0.00    -0.017 A 
ATOM     11  C   UNL     1     -36.212   4.211  10.129  1.00  0.00    -0.004 A 
ATOM     12  C   UNL     1     -37.106   3.465  10.942  1.00  0.00    +0.010 A 
ATOM     13  C   UNL     1     -38.494   3.600  10.840  1.00  0.00    +0.001 A 
ATOM     14  C   UNL     1     -39.034   4.486   9.921  1.00  0.00    +0.001 A 
ATOM     15  C   UNL     1     -38.186   5.232   9.108  1.00  0.00    +0.009 A 
ENDROOT
TORSDOF 0
ENDMDL
MODEL 9
REMARK VINA RESULT:    -7.232      9.215     10.638
REMARK INTER + INTRA:          -7.232
REMARK INTER:                  -7.232
REMARK INTRA:                   0.000
REMARK UNBOUND:                 0.000
REMARK SMILES Brc1c2ccccc2cc2ccccc12
REMARK SMILES IDX 1 1 2 2 3 3 4 4 5 5 6 6 7 7 8 8 9 9 10 10 15 11 14 12 13 13
REMARK SMILES IDX 12 14 11 15
REMARK H PARENT
ROOT
ATOM      1 Br   UNL     1     -37.386   1.040  11.055  1.00  0.00    -0.049 Br
ATOM      2  C   UNL     1     -36.400   2.584  10.457  1.00  0.00    +0.033 A 
ATOM      3  C   UNL     1     -34.988   2.473  10.274  1.00  0.00    -0.004 A 
ATOM      4  C   UNL     1     -34.220   1.298  10.498  1.00  0.00    +0.010 A 
ATOM      5  C   UNL     1     -32.838   1.263  10.298  1.00  0.00    +0.001 A 
ATOM      6  C   UNL     1     -32.174   2.401   9.867  1.00  0.00    +0.001 A 
ATOM      7  C   UNL     1     -32.895   3.569   9.638  1.00  0.00    +0.009 A 
ATOM      8  C   UNL     1     -34.287   3.618   9.836  1.00  0.00    -0.017 A 
ATOM      9  C   UNL     1     -34.979   4.812   9.595  1.00  0.00    +0.017 A 
ATOM     10  C   UNL     1     -36.364   4.920   9.774  1.00  0.00    -0.017 A 
ATOM     11  C   UNL     1     -37.108   3.801  10.212  1.00  0.00    -0.004 A 
ATOM     12  C   UNL     1     -38.507   3.984  10.372  1.00  0.00    +0.010 A 
ATOM     13  C   UNL     1     -39.132   5.208  10.113  1.00  0.00    +0.001 A 
ATOM     14  C   UNL     1     -38.379   6.289   9.685  1.00  0.00    +0.001 A 
ATOM     15  C   UNL     1     -37.005   6.145   9.517  1.00  0.00    +0.009 A 
ENDROOT
TORSDOF 0
ENDMDL
