MODEL 1
REMARK VINA RESULT:   -10.125      0.000      0.000
REMARK INTER + INTRA:         -11.961
REMARK INTER:                 -12.197
REMARK INTRA:                   0.236
REMARK UNBOUND:                 0.236
REMARK SMILES CN(C)C[C@H](O)c1cc2ccccc2c2ccccc12
REMARK SMILES IDX 4 1 2 2 1 3 3 4 5 5 6 6 7 8 20 9 8 10 19 11 15 12 9 13 18 14
REMARK SMILES IDX 16 15 14 16 10 17 17 18 13 19 11 20 12 21
REMARK H PARENT 6 7
ROOT
ATOM      1  C   UNL     1     -31.591   8.330   7.511  1.00  0.00    +0.120 C 
ENDROOT
BRANCH   1   2
ATOM      2  N   UNL     1     -32.660   7.834   6.621  1.00  0.00    -0.306 NA
ATOM      3  C   UNL     1     -32.180   7.294   5.357  1.00  0.00    +0.105 C 
ATOM      4  C   UNL     1     -33.607   6.943   7.280  1.00  0.00    +0.105 C 
ENDBRANCH   1   2
BRANCH   1   5
ATOM      5  C   UNL     1     -30.988   9.743   7.258  1.00  0.00    +0.159 C 
BRANCH   5   6
ATOM      6  O   UNL     1     -31.646  10.449   6.209  1.00  0.00    -0.387 OA
ATOM      7  H   UNL     1     -32.045  11.232   6.618  1.00  0.00    +0.211 HD
ENDBRANCH   5   6
BRANCH   5   8
ATOM      8  C   UNL     1     -29.485   9.679   6.986  1.00  0.00    -0.010 A 
ATOM      9  C   UNL     1     -28.731  10.719   6.373  1.00  0.00    -0.012 A 
ATOM     10  C   UNL     1     -28.840   8.480   7.340  1.00  0.00    +0.015 A 
ATOM     11  C   UNL     1     -29.307  11.956   5.993  1.00  0.00    +0.009 A 
ATOM     12  C   UNL     1     -27.339  10.521   6.127  1.00  0.00    -0.010 A 
ATOM     13  C   UNL     1     -27.479   8.271   7.113  1.00  0.00    -0.017 A 
ATOM     14  C   UNL     1     -28.573  12.973   5.385  1.00  0.00    +0.001 A 
ATOM     15  C   UNL     1     -26.626  11.581   5.505  1.00  0.00    +0.009 A 
ATOM     16  C   UNL     1     -26.704   9.283   6.503  1.00  0.00    -0.011 A 
ATOM     17  C   UNL     1     -26.896   7.049   7.494  1.00  0.00    +0.009 A 
ATOM     18  C   UNL     1     -27.228  12.785   5.139  1.00  0.00    +0.001 A 
ATOM     19  C   UNL     1     -25.329   8.987   6.307  1.00  0.00    +0.009 A 
ATOM     20  C   UNL     1     -25.544   6.797   7.285  1.00  0.00    +0.001 A 
ATOM     21  C   UNL     1     -24.758   7.769   6.689  1.00  0.00    +0.001 A 
ENDBRANCH   5   8
ENDBRANCH   1   5
TORSDOF 4
ENDMDL
MODEL 2
REMARK VINA RESULT:    -9.930      1.149      3.886
REMARK INTER + INTRA:         -11.726
REMARK INTER:                 -11.339
REMARK INTRA:                  -0.387
REMARK UNBOUND:                 0.236
REMARK SMILES CN(C)C[C@H](O)c1cc2ccccc2c2ccccc12
REMARK SMILES IDX 4 1 2 2 1 3 3 4 5 5 6 6 7 8 20 9 8 10 19 11 15 12 9 13 18 14
REMARK SMILES IDX 16 15 14 16 10 17 17 18 13 19 11 20 12 21
REMARK H PARENT 6 7
ROOT
ATOM      1  C   UNL     1     -32.505   8.097   6.597  1.00  0.00    +0.120 C 
ENDROOT
BRANCH   1   2
ATOM      2  N   UNL     1     -32.621   6.630   6.712  1.00  0.00    -0.306 NA
ATOM      3  C   UNL     1     -32.534   6.131   8.077  1.00  0.00    +0.105 C 
ATOM      4  C   UNL     1     -33.758   6.072   5.990  1.00  0.00    +0.105 C 
ENDBRANCH   1   2
BRANCH   1   5
ATOM      5  C   UNL     1     -31.752   8.889   7.706  1.00  0.00    +0.159 C 
BRANCH   5   6
ATOM      6  O   UNL     1     -32.510   9.981   8.221  1.00  0.00    -0.387 OA
ATOM      7  H   UNL     1     -32.452   9.919   9.188  1.00  0.00    +0.211 HD
ENDBRANCH   5   6
BRANCH   5   8
ATOM      8  C   UNL     1     -30.385   9.378   7.227  1.00  0.00    -0.010 A 
ATOM      9  C   UNL     1     -29.172   8.648   7.367  1.00  0.00    -0.012 A 
ATOM     10  C   UNL     1     -30.352  10.661   6.648  1.00  0.00    +0.015 A 
ATOM     11  C   UNL     1     -29.124   7.350   7.934  1.00  0.00    +0.009 A 
ATOM     12  C   UNL     1     -27.948   9.233   6.923  1.00  0.00    -0.010 A 
ATOM     13  C   UNL     1     -29.166  11.246   6.202  1.00  0.00    -0.017 A 
ATOM     14  C   UNL     1     -27.936   6.636   8.080  1.00  0.00    +0.001 A 
ATOM     15  C   UNL     1     -26.760   8.473   7.090  1.00  0.00    +0.009 A 
ATOM     16  C   UNL     1     -27.945  10.548   6.331  1.00  0.00    -0.011 A 
ATOM     17  C   UNL     1     -29.205  12.531   5.631  1.00  0.00    +0.009 A 
ATOM     18  C   UNL     1     -26.750   7.200   7.658  1.00  0.00    +0.001 A 
ATOM     19  C   UNL     1     -26.787  11.217   5.854  1.00  0.00    +0.009 A 
ATOM     20  C   UNL     1     -28.047  13.153   5.175  1.00  0.00    +0.001 A 
ATOM     21  C   UNL     1     -26.834  12.495   5.287  1.00  0.00    +0.001 A 
ENDBRANCH   5   8
ENDBRANCH   1   5
TORSDOF 4
ENDMDL
MODEL 3
REMARK VINA RESULT:    -9.050      1.924      2.462
REMARK INTER + INTRA:         -10.665
REMARK INTER:                 -10.405
REMARK INTRA:                  -0.260
REMARK UNBOUND:                 0.236
REMARK SMILES CN(C)C[C@H](O)c1cc2ccccc2c2ccccc12
REMARK SMILES IDX 4 1 2 2 1 3 3 4 5 5 6 6 7 8 20 9 8 10 19 11 15 12 9 13 18 14
REMARK SMILES IDX 16 15 14 16 10 17 17 18 13 19 11 20 12 21
REMARK H PARENT 6 7
ROOT
ATOM      1  C   UNL     1     -31.020   6.063   8.879  1.00  0.00    +0.120 C 
ENDROOT
BRANCH   1   2
ATOM      2  N   UNL     1     -31.953   4.920   8.834  1.00  0.00    -0.306 NA
ATOM      3  C   UNL     1     -31.366   3.655   9.250  1.00  0.00    +0.105 C 
ATOM      4  C   UNL     1     -33.231   5.179   9.486  1.00  0.00    +0.105 C 
ENDBRANCH   1   2
BRANCH   1   5
ATOM      5  C   UNL     1     -31.271   7.286   7.948  1.00  0.00    +0.159 C 
BRANCH   5   6
ATOM      6  O   UNL     1     -31.994   6.945   6.767  1.00  0.00    -0.387 OA
ATOM      7  H   UNL     1     -31.788   7.633   6.115  1.00  0.00    +0.211 HD
ENDBRANCH   5   6
BRANCH   5   8
ATOM      8  C   UNL     1     -29.969   7.997   7.580  1.00  0.00    -0.010 A 
ATOM      9  C   UNL     1     -29.888   9.333   7.096  1.00  0.00    -0.012 A 
ATOM     10  C   UNL     1     -28.790   7.238   7.700  1.00  0.00    +0.015 A 
ATOM     11  C   UNL     1     -31.028  10.162   6.951  1.00  0.00    +0.009 A 
ATOM     12  C   UNL     1     -28.615   9.872   6.739  1.00  0.00    -0.010 A 
ATOM     13  C   UNL     1     -27.537   7.750   7.363  1.00  0.00    -0.017 A 
ATOM     14  C   UNL     1     -30.953  11.468   6.469  1.00  0.00    +0.001 A 
ATOM     15  C   UNL     1     -28.582  11.206   6.252  1.00  0.00    +0.009 A 
ATOM     16  C   UNL     1     -27.424   9.071   6.876  1.00  0.00    -0.011 A 
ATOM     17  C   UNL     1     -26.398   6.937   7.510  1.00  0.00    +0.009 A 
ATOM     18  C   UNL     1     -29.726  11.991   6.117  1.00  0.00    +0.001 A 
ATOM     19  C   UNL     1     -26.113   9.511   6.554  1.00  0.00    +0.009 A 
ATOM     20  C   UNL     1     -25.129   7.405   7.184  1.00  0.00    +0.001 A 
ATOM     21  C   UNL     1     -24.986   8.696   6.704  1.00  0.00    +0.001 A 
ENDBRANCH   5   8
ENDBRANCH   1   5
TORSDOF 4
ENDMDL
MODEL 4
REMARK VINA RESULT:    -8.410      4.473      9.188
REMARK INTER + INTRA:          -9.895
REMARK INTER:                  -9.780
REMARK INTRA:                  -0.115
REMARK UNBOUND:                 0.236
REMARK SMILES CN(C)C[C@H](O)c1cc2ccccc2c2ccccc12
REMARK SMILES IDX 4 1 2 2 1 3 3 4 5 5 6 6 7 8 20 9 8 10 19 11 15 12 9 13 18 14
REMARK SMILES IDX 16 15 14 16 10 17 17 18 13 19 11 20 12 21
REMARK H PARENT 6 7
ROOT
ATOM      1  C   UNL     1     -33.076   6.246   6.734  1.00  0.00    +0.120 C 
ENDROOT
BRANCH   1   2
ATOM      2  N   UNL     1     -32.436   7.526   6.368  1.00  0.00    -0.306 NA
ATOM      3  C   UNL     1     -31.202   7.802   7.089  1.00  0.00    +0.105 C 
ATOM      4  C   UNL     1     -32.295   7.722   4.931  1.00  0.00    +0.105 C 
ENDBRANCH   1   2
BRANCH   1   5
ATOM      5  C   UNL     1     -34.475   6.265   7.420  1.00  0.00    +0.159 C 
BRANCH   5   6
ATOM      6  O   UNL     1     -34.793   7.530   7.997  1.00  0.00    -0.387 OA
ATOM      7  H   UNL     1     -33.946   7.945   8.223  1.00  0.00    +0.211 HD
ENDBRANCH   5   6
BRANCH   5   8
ATOM      8  C   UNL     1     -34.609   5.161   8.468  1.00  0.00    -0.010 A 
ATOM      9  C   UNL     1     -35.789   4.899   9.218  1.00  0.00    -0.012 A 
ATOM     10  C   UNL     1     -33.455   4.393   8.713  1.00  0.00    +0.015 A 
ATOM     11  C   UNL     1     -36.991   5.625   9.025  1.00  0.00    +0.009 A 
ATOM     12  C   UNL     1     -35.777   3.869  10.206  1.00  0.00    -0.010 A 
ATOM     13  C   UNL     1     -33.426   3.378   9.670  1.00  0.00    -0.017 A 
ATOM     14  C   UNL     1     -38.147   5.377   9.765  1.00  0.00    +0.001 A 
ATOM     15  C   UNL     1     -36.974   3.648  10.937  1.00  0.00    +0.009 A 
ATOM     16  C   UNL     1     -34.581   3.097  10.433  1.00  0.00    -0.011 A 
ATOM     17  C   UNL     1     -32.239   2.647   9.863  1.00  0.00    +0.009 A 
ATOM     18  C   UNL     1     -38.138   4.386  10.725  1.00  0.00    +0.001 A 
ATOM     19  C   UNL     1     -34.463   2.050  11.386  1.00  0.00    +0.009 A 
ATOM     20  C   UNL     1     -32.165   1.628  10.807  1.00  0.00    +0.001 A 
ATOM     21  C   UNL     1     -33.280   1.329  11.571  1.00  0.00    +0.001 A 
ENDBRANCH   5   8
ENDBRANCH   1   5
TORSDOF 4
ENDMDL
MODEL 5
REMARK VINA RESULT:    -8.382      1.945      4.657
REMARK INTER + INTRA:          -9.861
REMARK INTER:                  -9.499
REMARK INTRA:                  -0.362
REMARK UNBOUND:                 0.236
REMARK SMILES CN(C)C[C@H](O)c1cc2ccccc2c2ccccc12
REMARK SMILES IDX 4 1 2 2 1 3 3 4 5 5 6 6 7 8 20 9 8 10 19 11 15 12 9 13 18 14
REMARK SMILES IDX 16 15 14 16 10 17 17 18 13 19 11 20 12 21
REMARK H PARENT 6 7
ROOT
ATOM      1  C   UNL     1     -33.327   6.426   7.567  1.00  0.00    +0.120 C 
ENDROOT
BRANCH   1   2
ATOM      2  N   UNL     1     -33.589   5.662   6.331  1.00  0.00    -0.306 NA
ATOM      3  C   UNL     1     -34.438   4.496   6.520  1.00  0.00    +0.105 C 
ATOM      4  C   UNL     1     -34.023   6.488   5.211  1.00  0.00    +0.105 C 
ENDBRANCH   1   2
BRANCH   1   5
ATOM      5  C   UNL     1     -31.966   6.240   8.301  1.00  0.00    +0.159 C 
BRANCH   5   6
ATOM      6  O   UNL     1     -32.094   6.252   9.721  1.00  0.00    -0.387 OA
ATOM      7  H   UNL     1     -31.200   6.126  10.075  1.00  0.00    +0.211 HD
ENDBRANCH   5   6
BRANCH   5   8
ATOM      8  C   UNL     1     -30.935   7.277   7.858  1.00  0.00    -0.010 A 
ATOM      9  C   UNL     1     -29.526   7.084   7.902  1.00  0.00    -0.012 A 
ATOM     10  C   UNL     1     -31.445   8.513   7.418  1.00  0.00    +0.015 A 
ATOM     11  C   UNL     1     -28.936   5.867   8.326  1.00  0.00    +0.009 A 
ATOM     12  C   UNL     1     -28.660   8.148   7.505  1.00  0.00    -0.010 A 
ATOM     13  C   UNL     1     -30.615   9.562   7.021  1.00  0.00    -0.017 A 
ATOM     14  C   UNL     1     -27.556   5.678   8.379  1.00  0.00    +0.001 A 
ATOM     15  C   UNL     1     -27.261   7.915   7.573  1.00  0.00    +0.009 A 
ATOM     16  C   UNL     1     -29.212   9.402   7.057  1.00  0.00    -0.011 A 
ATOM     17  C   UNL     1     -31.192  10.771   6.590  1.00  0.00    +0.009 A 
ATOM     18  C   UNL     1     -26.715   6.706   8.003  1.00  0.00    +0.001 A 
ATOM     19  C   UNL     1     -28.443  10.520   6.638  1.00  0.00    +0.009 A 
ATOM     20  C   UNL     1     -30.403  11.844   6.187  1.00  0.00    +0.001 A 
ATOM     21  C   UNL     1     -29.024  11.718   6.211  1.00  0.00    +0.001 A 
ENDBRANCH   5   8
ENDBRANCH   1   5
TORSDOF 4
ENDMDL
MODEL 6
REMARK VINA RESULT:    -8.251      4.162      9.643
REMARK INTER + INTRA:          -9.702
REMARK INTER:                  -9.531
REMARK INTRA:                  -0.171
REMARK UNBOUND:                 0.236
REMARK SMILES CN(C)C[C@H](O)c1cc2ccccc2c2ccccc12
REMARK SMILES IDX 4 1 2 2 1 3 3 4 5 5 6 6 7 8 20 9 8 10 19 11 15 12 9 13 18 14
REMARK SMILES IDX 16 15 14 16 10 17 17 18 13 19 11 20 12 21
REMARK H PARENT 6 7
ROOT
ATOM      1  C   UNL     1     -32.246   6.955   7.862  1.00  0.00    +0.120 C 
ENDROOT
BRANCH   1   2
ATOM      2  N   UNL     1     -31.782   8.159   7.143  1.00  0.00    -0.306 NA
ATOM      3  C   UNL     1     -32.255   9.412   7.711  1.00  0.00    +0.105 C 
ATOM      4  C   UNL     1     -30.347   8.173   6.887  1.00  0.00    +0.105 C 
ENDBRANCH   1   2
BRANCH   1   5
ATOM      5  C   UNL     1     -33.346   6.062   7.215  1.00  0.00    +0.159 C 
BRANCH   5   6
ATOM      6  O   UNL     1     -34.112   6.750   6.229  1.00  0.00    -0.387 OA
ATOM      7  H   UNL     1     -33.472   7.161   5.627  1.00  0.00    +0.211 HD
ENDBRANCH   5   6
BRANCH   5   8
ATOM      8  C   UNL     1     -34.271   5.449   8.266  1.00  0.00    -0.010 A 
ATOM      9  C   UNL     1     -33.903   4.397   9.150  1.00  0.00    -0.012 A 
ATOM     10  C   UNL     1     -35.583   5.955   8.309  1.00  0.00    +0.015 A 
ATOM     11  C   UNL     1     -32.601   3.838   9.170  1.00  0.00    +0.009 A 
ATOM     12  C   UNL     1     -34.873   3.873  10.057  1.00  0.00    -0.010 A 
ATOM     13  C   UNL     1     -36.543   5.461   9.194  1.00  0.00    -0.017 A 
ATOM     14  C   UNL     1     -32.239   2.801  10.029  1.00  0.00    +0.001 A 
ATOM     15  C   UNL     1     -34.465   2.817  10.915  1.00  0.00    +0.009 A 
ATOM     16  C   UNL     1     -36.209   4.414  10.081  1.00  0.00    -0.011 A 
ATOM     17  C   UNL     1     -37.836   6.014   9.186  1.00  0.00    +0.009 A 
ATOM     18  C   UNL     1     -33.175   2.288  10.903  1.00  0.00    +0.001 A 
ATOM     19  C   UNL     1     -37.246   3.970  10.945  1.00  0.00    +0.009 A 
ATOM     20  C   UNL     1     -38.825   5.551  10.049  1.00  0.00    +0.001 A 
ATOM     21  C   UNL     1     -38.529   4.525  10.931  1.00  0.00    +0.001 A 
ENDBRANCH   5   8
ENDBRANCH   1   5
TORSDOF 4
ENDMDL
MODEL 7
REMARK VINA RESULT:    -8.137      1.651      2.399
REMARK INTER + INTRA:          -9.565
REMARK INTER:                  -9.866
REMARK INTRA:                   0.301
REMARK UNBOUND:                 0.236
REMARK SMILES CN(C)C[C@H](O)c1cc2ccccc2c2ccccc12
REMARK SMILES IDX 4 1 2 2 1 3 3 4 5 5 6 6 7 8 20 9 8 10 19 11 15 12 9 13 18 14
REMARK SMILES IDX 16 15 14 16 10 17 17 18 13 19 11 20 12 21
REMARK H PARENT 6 7
ROOT
ATOM      1  C   UNL     1     -32.576   7.283   7.113  1.00  0.00    +0.120 C 
ENDROOT
BRANCH   1   2
ATOM      2  N   UNL     1     -32.723   6.642   5.791  1.00  0.00    -0.306 NA
ATOM      3  C   UNL     1     -33.934   5.848   5.644  1.00  0.00    +0.105 C 
ATOM      4  C   UNL     1     -32.517   7.552   4.671  1.00  0.00    +0.105 C 
ENDBRANCH   1   2
BRANCH   1   5
ATOM      5  C   UNL     1     -31.355   6.911   8.006  1.00  0.00    +0.159 C 
BRANCH   5   6
ATOM      6  O   UNL     1     -31.646   6.978   9.400  1.00  0.00    -0.387 OA
ATOM      7  H   UNL     1     -30.829   6.726   9.859  1.00  0.00    +0.211 HD
ENDBRANCH   5   6
BRANCH   5   8
ATOM      8  C   UNL     1     -30.132   7.768   7.682  1.00  0.00    -0.010 A 
ATOM      9  C   UNL     1     -30.182   9.146   7.331  1.00  0.00    -0.012 A 
ATOM     10  C   UNL     1     -28.888   7.110   7.702  1.00  0.00    +0.015 A 
ATOM     11  C   UNL     1     -31.394   9.880   7.294  1.00  0.00    +0.009 A 
ATOM     12  C   UNL     1     -28.972   9.829   7.002  1.00  0.00    -0.010 A 
ATOM     13  C   UNL     1     -27.695   7.762   7.390  1.00  0.00    -0.017 A 
ATOM     14  C   UNL     1     -31.448  11.227   6.943  1.00  0.00    +0.001 A 
ATOM     15  C   UNL     1     -29.070  11.202   6.650  1.00  0.00    +0.009 A 
ATOM     16  C   UNL     1     -27.713   9.129   7.034  1.00  0.00    -0.011 A 
ATOM     17  C   UNL     1     -26.486   7.044   7.432  1.00  0.00    +0.009 A 
ATOM     18  C   UNL     1     -30.282  11.891   6.617  1.00  0.00    +0.001 A 
ATOM     19  C   UNL     1     -26.455   9.714   6.729  1.00  0.00    +0.009 A 
ATOM     20  C   UNL     1     -25.273   7.654   7.126  1.00  0.00    +0.001 A 
ATOM     21  C   UNL     1     -25.258   8.993   6.773  1.00  0.00    +0.001 A 
ENDBRANCH   5   8
ENDBRANCH   1   5
TORSDOF 4
ENDMDL
MODEL 8
REMARK VINA RESULT:    -8.014      7.786     11.194
REMARK INTER + INTRA:          -9.417
REMARK INTER:                  -9.099
REMARK INTRA:                  -0.318
REMARK UNBOUND:                 0.236
REMARK SMILES CN(C)C[C@H](O)c1cc2ccccc2c2ccccc12
REMARK SMILES IDX 4 1 2 2 1 3 3 4 5 5 6 6 7 8 20 9 8 10 19 11 15 12 9 13 18 14
REMARK SMILES IDX 16 15 14 16 10 17 17 18 13 19 11 20 12 21
REMARK H PARENT 6 7
ROOT
ATOM      1  C   UNL     1     -26.622   2.802  10.818  1.00  0.00    +0.120 C 
ENDROOT
BRANCH   1   2
ATOM      2  N   UNL     1     -25.613   3.259   9.841  1.00  0.00    -0.306 NA
ATOM      3  C   UNL     1     -26.008   4.437   9.083  1.00  0.00    +0.105 C 
ATOM      4  C   UNL     1     -24.271   3.381  10.397  1.00  0.00    +0.105 C 
ENDBRANCH   1   2
BRANCH   1   5
ATOM      5  C   UNL     1     -27.272   1.399  10.637  1.00  0.00    +0.159 C 
BRANCH   5   6
ATOM      6  O   UNL     1     -27.278   0.960   9.281  1.00  0.00    -0.387 OA
ATOM      7  H   UNL     1     -28.122   1.254   8.905  1.00  0.00    +0.211 HD
ENDBRANCH   5   6
BRANCH   5   8
ATOM      8  C   UNL     1     -28.688   1.351  11.211  1.00  0.00    -0.010 A 
ATOM      9  C   UNL     1     -29.007   0.962  12.542  1.00  0.00    -0.012 A 
ATOM     10  C   UNL     1     -29.730   1.680  10.324  1.00  0.00    +0.015 A 
ATOM     11  C   UNL     1     -28.015   0.622  13.495  1.00  0.00    +0.009 A 
ATOM     12  C   UNL     1     -30.375   0.910  12.948  1.00  0.00    -0.010 A 
ATOM     13  C   UNL     1     -31.072   1.641  10.704  1.00  0.00    -0.017 A 
ATOM     14  C   UNL     1     -28.325   0.232  14.797  1.00  0.00    +0.001 A 
ATOM     15  C   UNL     1     -30.648   0.509  14.282  1.00  0.00    +0.009 A 
ATOM     16  C   UNL     1     -31.421   1.256  12.017  1.00  0.00    -0.011 A 
ATOM     17  C   UNL     1     -32.063   1.986   9.766  1.00  0.00    +0.009 A 
ATOM     18  C   UNL     1     -29.646   0.174  15.192  1.00  0.00    +0.001 A 
ATOM     19  C   UNL     1     -32.808   1.241  12.319  1.00  0.00    +0.009 A 
ATOM     20  C   UNL     1     -33.414   1.959  10.101  1.00  0.00    +0.001 A 
ATOM     21  C   UNL     1     -33.787   1.585  11.381  1.00  0.00    +0.001 A 
ENDBRANCH   5   8
ENDBRANCH   1   5
TORSDOF 4
ENDMDL
MODEL 9
REMARK VINA RESULT:    -7.910      6.709     10.184
REMARK INTER + INTRA:          -9.292
REMARK INTER:                  -8.959
REMARK INTRA:                  -0.333
REMARK UNBOUND:                 0.236
REMARK SMILES CN(C)C[C@H](O)c1cc2ccccc2c2ccccc12
REMARK SMILES IDX 4 1 2 2 1 3 3 4 5 5 6 6 7 8 20 9 8 10 19 11 15 12 9 13 18 14
REMARK SMILES IDX 16 15 14 16 10 17 17 18 13 19 11 20 12 21
REMARK H PARENT 6 7
ROOT
ATOM      1  C   UNL     1     -33.236   1.936  12.080  1.00  0.00    +0.120 C 
ENDROOT
BRANCH   1   2
ATOM      2  N   UNL     1     -32.108   0.995  11.925  1.00  0.00    -0.306 NA
ATOM      3  C   UNL     1     -31.149   1.380  10.901  1.00  0.00    +0.105 C 
ATOM      4  C   UNL     1     -31.464   0.638  13.182  1.00  0.00    +0.105 C 
ENDBRANCH   1   2
BRANCH   1   5
ATOM      5  C   UNL     1     -34.502   1.757  11.192  1.00  0.00    +0.159 C 
BRANCH   5   6
ATOM      6  O   UNL     1     -34.433   0.607  10.351  1.00  0.00    -0.387 OA
ATOM      7  H   UNL     1     -35.283   0.151  10.447  1.00  0.00    +0.211 HD
ENDBRANCH   5   6
BRANCH   5   8
ATOM      8  C   UNL     1     -34.789   3.003  10.354  1.00  0.00    -0.010 A 
ATOM      9  C   UNL     1     -36.080   3.575  10.173  1.00  0.00    -0.012 A 
ATOM     10  C   UNL     1     -33.685   3.578   9.697  1.00  0.00    +0.015 A 
ATOM     11  C   UNL     1     -37.238   3.057  10.805  1.00  0.00    +0.009 A 
ATOM     12  C   UNL     1     -36.228   4.714   9.326  1.00  0.00    -0.010 A 
ATOM     13  C   UNL     1     -33.810   4.695   8.870  1.00  0.00    -0.017 A 
ATOM     14  C   UNL     1     -38.505   3.609  10.623  1.00  0.00    +0.001 A 
ATOM     15  C   UNL     1     -37.535   5.246   9.167  1.00  0.00    +0.009 A 
ATOM     16  C   UNL     1     -35.079   5.283   8.667  1.00  0.00    -0.011 A 
ATOM     17  C   UNL     1     -32.665   5.221   8.244  1.00  0.00    +0.009 A 
ATOM     18  C   UNL     1     -38.655   4.706   9.800  1.00  0.00    +0.001 A 
ATOM     19  C   UNL     1     -35.116   6.414   7.810  1.00  0.00    +0.009 A 
ATOM     20  C   UNL     1     -32.743   6.332   7.410  1.00  0.00    +0.001 A 
ATOM     21  C   UNL     1     -33.973   6.930   7.192  1.00  0.00    +0.001 A 
ENDBRANCH   5   8
ENDBRANCH   1   5
TORSDOF 4
ENDMDL
