MODEL 1
REMARK VINA RESULT:    -9.628      0.000      0.000
REMARK INTER + INTRA:         -10.379
REMARK INTER:                 -10.191
REMARK INTRA:                  -0.188
REMARK UNBOUND:                -0.188
REMARK SMILES CC(=O)c1c2ccccc2cc2ccccc12
REMARK SMILES IDX 1 1 2 2 3 3 4 4 5 5 17 6 6 7 10 8 12 9 16 10 7 11 9 12 11 13
REMARK SMILES IDX 13 14 15 15 8 16 14 17
REMARK H PARENT
ROOT
ATOM      1  C   UNL     1     -25.749  11.567   5.814  1.00  0.00    +0.093 C 
ATOM      2  C   UNL     1     -26.543  10.429   5.229  1.00  0.00    +0.161 C 
ATOM      3  O   UNL     1     -26.493  10.120   4.044  1.00  0.00    -0.294 OA
ENDROOT
BRANCH   2   4
ATOM      4  C   UNL     1     -27.409   9.673   6.159  1.00  0.00    +0.033 A 
ATOM      5  C   UNL     1     -26.921   8.454   6.699  1.00  0.00    -0.007 A 
ATOM      6  C   UNL     1     -28.708  10.173   6.433  1.00  0.00    -0.007 A 
ATOM      7  C   UNL     1     -25.619   7.940   6.468  1.00  0.00    +0.009 A 
ATOM      8  C   UNL     1     -27.789   7.706   7.522  1.00  0.00    -0.017 A 
ATOM      9  C   UNL     1     -29.549   9.399   7.260  1.00  0.00    -0.017 A 
ATOM     10  C   UNL     1     -29.216  11.399   5.935  1.00  0.00    +0.009 A 
ATOM     11  C   UNL     1     -25.203   6.729   7.023  1.00  0.00    +0.001 A 
ATOM     12  C   UNL     1     -27.356   6.486   8.072  1.00  0.00    +0.009 A 
ATOM     13  C   UNL     1     -29.082   8.184   7.786  1.00  0.00    +0.017 A 
ATOM     14  C   UNL     1     -30.849   9.847   7.553  1.00  0.00    +0.009 A 
ATOM     15  C   UNL     1     -30.508  11.832   6.235  1.00  0.00    +0.001 A 
ATOM     16  C   UNL     1     -26.073   6.001   7.822  1.00  0.00    +0.001 A 
ATOM     17  C   UNL     1     -31.326  11.054   7.043  1.00  0.00    +0.001 A 
ENDBRANCH   2   4
TORSDOF 1
ENDMDL
MODEL 2
REMARK VINA RESULT:    -9.373      0.282      4.469
REMARK INTER + INTRA:         -10.109
REMARK INTER:                  -9.873
REMARK INTRA:                  -0.236
REMARK UNBOUND:                -0.188
REMARK SMILES CC(=O)c1c2ccccc2cc2ccccc12
REMARK SMILES IDX 1 1 2 2 3 3 4 4 5 5 17 6 6 7 10 8 12 9 16 10 7 11 9 12 11 13
REMARK SMILES IDX 13 14 15 15 8 16 14 17
REMARK H PARENT
ROOT
ATOM      1  C   UNL     1     -25.575  11.203   5.966  1.00  0.00    +0.093 C 
ATOM      2  C   UNL     1     -26.496  10.219   5.294  1.00  0.00    +0.161 C 
ATOM      3  O   UNL     1     -26.465   9.989   4.091  1.00  0.00    -0.294 OA
ENDROOT
BRANCH   2   4
ATOM      4  C   UNL     1     -27.467   9.517   6.161  1.00  0.00    +0.033 A 
ATOM      5  C   UNL     1     -28.716  10.140   6.421  1.00  0.00    -0.007 A 
ATOM      6  C   UNL     1     -27.090   8.274   6.734  1.00  0.00    -0.007 A 
ATOM      7  C   UNL     1     -29.136  11.365   5.843  1.00  0.00    +0.009 A 
ATOM      8  C   UNL     1     -29.599   9.494   7.312  1.00  0.00    -0.017 A 
ATOM      9  C   UNL     1     -27.997   7.657   7.620  1.00  0.00    -0.017 A 
ATOM     10  C   UNL     1     -25.865   7.611   6.473  1.00  0.00    +0.009 A 
ATOM     11  C   UNL     1     -30.375  11.930   6.148  1.00  0.00    +0.001 A 
ATOM     12  C   UNL     1     -30.844  10.076   7.610  1.00  0.00    +0.009 A 
ATOM     13  C   UNL     1     -29.229   8.273   7.897  1.00  0.00    +0.017 A 
ATOM     14  C   UNL     1     -27.665   6.430   8.221  1.00  0.00    +0.009 A 
ATOM     15  C   UNL     1     -25.549   6.393   7.076  1.00  0.00    +0.001 A 
ATOM     16  C   UNL     1     -31.228  11.286   7.034  1.00  0.00    +0.001 A 
ATOM     17  C   UNL     1     -26.450   5.804   7.953  1.00  0.00    +0.001 A 
ENDBRANCH   2   4
TORSDOF 1
ENDMDL
MODEL 3
REMARK VINA RESULT:    -8.977      1.740      5.255
REMARK INTER + INTRA:          -9.690
REMARK INTER:                  -9.749
REMARK INTRA:                   0.059
REMARK UNBOUND:                -0.188
REMARK SMILES CC(=O)c1c2ccccc2cc2ccccc12
REMARK SMILES IDX 1 1 2 2 3 3 4 4 5 5 17 6 6 7 10 8 12 9 16 10 7 11 9 12 11 13
REMARK SMILES IDX 13 14 15 15 8 16 14 17
REMARK H PARENT
ROOT
ATOM      1  C   UNL     1     -30.777   8.170   6.309  1.00  0.00    +0.093 C 
ATOM      2  C   UNL     1     -30.049   9.184   7.151  1.00  0.00    +0.161 C 
ATOM      3  O   UNL     1     -30.598   9.842   8.027  1.00  0.00    -0.294 OA
ENDROOT
BRANCH   2   4
ATOM      4  C   UNL     1     -28.607   9.363   6.879  1.00  0.00    +0.033 A 
ATOM      5  C   UNL     1     -28.181  10.563   6.250  1.00  0.00    -0.007 A 
ATOM      6  C   UNL     1     -27.717   8.309   7.214  1.00  0.00    -0.007 A 
ATOM      7  C   UNL     1     -29.037  11.646   5.928  1.00  0.00    +0.009 A 
ATOM      8  C   UNL     1     -26.813  10.685   5.926  1.00  0.00    -0.017 A 
ATOM      9  C   UNL     1     -26.357   8.465   6.876  1.00  0.00    -0.017 A 
ATOM     10  C   UNL     1     -28.104   7.113   7.868  1.00  0.00    +0.009 A 
ATOM     11  C   UNL     1     -28.557  12.796   5.301  1.00  0.00    +0.001 A 
ATOM     12  C   UNL     1     -26.343  11.849   5.293  1.00  0.00    +0.009 A 
ATOM     13  C   UNL     1     -25.928   9.641   6.239  1.00  0.00    +0.017 A 
ATOM     14  C   UNL     1     -25.438   7.444   7.177  1.00  0.00    +0.009 A 
ATOM     15  C   UNL     1     -27.181   6.108   8.162  1.00  0.00    +0.001 A 
ATOM     16  C   UNL     1     -27.210  12.896   4.981  1.00  0.00    +0.001 A 
ATOM     17  C   UNL     1     -25.847   6.274   7.814  1.00  0.00    +0.001 A 
ENDBRANCH   2   4
TORSDOF 1
ENDMDL
MODEL 4
REMARK VINA RESULT:    -8.829      1.749      4.194
REMARK INTER + INTRA:          -9.534
REMARK INTER:                 -10.111
REMARK INTRA:                   0.577
REMARK UNBOUND:                -0.188
REMARK SMILES CC(=O)c1c2ccccc2cc2ccccc12
REMARK SMILES IDX 1 1 2 2 3 3 4 4 5 5 17 6 6 7 10 8 12 9 16 10 7 11 9 12 11 13
REMARK SMILES IDX 13 14 15 15 8 16 14 17
REMARK H PARENT
ROOT
ATOM      1  C   UNL     1     -26.441   8.038   5.788  1.00  0.00    +0.093 C 
ATOM      2  C   UNL     1     -27.333   8.306   6.971  1.00  0.00    +0.161 C 
ATOM      3  O   UNL     1     -27.150   7.802   8.073  1.00  0.00    -0.294 OA
ENDROOT
BRANCH   2   4
ATOM      4  C   UNL     1     -28.471   9.225   6.753  1.00  0.00    +0.033 A 
ATOM      5  C   UNL     1     -28.205  10.521   6.239  1.00  0.00    -0.007 A 
ATOM      6  C   UNL     1     -29.773   8.789   7.113  1.00  0.00    -0.007 A 
ATOM      7  C   UNL     1     -26.923  10.978   5.843  1.00  0.00    +0.009 A 
ATOM      8  C   UNL     1     -29.291  11.412   6.111  1.00  0.00    -0.017 A 
ATOM      9  C   UNL     1     -30.835   9.706   6.972  1.00  0.00    -0.017 A 
ATOM     10  C   UNL     1     -30.077   7.493   7.601  1.00  0.00    +0.009 A 
ATOM     11  C   UNL     1     -26.726  12.270   5.352  1.00  0.00    +0.001 A 
ATOM     12  C   UNL     1     -29.078  12.711   5.617  1.00  0.00    +0.009 A 
ATOM     13  C   UNL     1     -30.580  10.996   6.480  1.00  0.00    +0.017 A 
ATOM     14  C   UNL     1     -32.141   9.325   7.325  1.00  0.00    +0.009 A 
ATOM     15  C   UNL     1     -31.379   7.129   7.946  1.00  0.00    +0.001 A 
ATOM     16  C   UNL     1     -27.804  13.137   5.242  1.00  0.00    +0.001 A 
ATOM     17  C   UNL     1     -32.412   8.047   7.810  1.00  0.00    +0.001 A 
ENDBRANCH   2   4
TORSDOF 1
ENDMDL
MODEL 5
REMARK VINA RESULT:    -8.817      1.765      3.585
REMARK INTER + INTRA:          -9.521
REMARK INTER:                  -9.505
REMARK INTRA:                  -0.016
REMARK UNBOUND:                -0.188
REMARK SMILES CC(=O)c1c2ccccc2cc2ccccc12
REMARK SMILES IDX 1 1 2 2 3 3 4 4 5 5 17 6 6 7 10 8 12 9 16 10 7 11 9 12 11 13
REMARK SMILES IDX 13 14 15 15 8 16 14 17
REMARK H PARENT
ROOT
ATOM      1  C   UNL     1     -31.262  11.198   8.083  1.00  0.00    +0.093 C 
ATOM      2  C   UNL     1     -30.870  10.225   7.003  1.00  0.00    +0.161 C 
ATOM      3  O   UNL     1     -31.689   9.631   6.310  1.00  0.00    -0.294 OA
ENDROOT
BRANCH   2   4
ATOM      4  C   UNL     1     -29.423  10.004   6.797  1.00  0.00    +0.033 A 
ATOM      5  C   UNL     1     -28.851   8.789   7.257  1.00  0.00    -0.007 A 
ATOM      6  C   UNL     1     -28.658  11.037   6.193  1.00  0.00    -0.007 A 
ATOM      7  C   UNL     1     -29.589   7.727   7.838  1.00  0.00    +0.009 A 
ATOM      8  C   UNL     1     -27.456   8.627   7.125  1.00  0.00    -0.017 A 
ATOM      9  C   UNL     1     -27.266  10.842   6.077  1.00  0.00    -0.017 A 
ATOM     10  C   UNL     1     -29.201  12.249   5.697  1.00  0.00    +0.009 A 
ATOM     11  C   UNL     1     -28.965   6.559   8.279  1.00  0.00    +0.001 A 
ATOM     12  C   UNL     1     -26.841   7.446   7.575  1.00  0.00    +0.009 A 
ATOM     13  C   UNL     1     -26.689   9.650   6.544  1.00  0.00    +0.017 A 
ATOM     14  C   UNL     1     -26.465  11.840   5.495  1.00  0.00    +0.009 A 
ATOM     15  C   UNL     1     -28.393  13.230   5.121  1.00  0.00    +0.001 A 
ATOM     16  C   UNL     1     -27.589   6.420   8.150  1.00  0.00    +0.001 A 
ATOM     17  C   UNL     1     -27.023  13.026   5.022  1.00  0.00    +0.001 A 
ENDBRANCH   2   4
TORSDOF 1
ENDMDL
MODEL 6
REMARK VINA RESULT:    -8.405      1.960      4.161
REMARK INTER + INTRA:          -9.085
REMARK INTER:                  -8.926
REMARK INTRA:                  -0.159
REMARK UNBOUND:                -0.188
REMARK SMILES CC(=O)c1c2ccccc2cc2ccccc12
REMARK SMILES IDX 1 1 2 2 3 3 4 4 5 5 17 6 6 7 10 8 12 9 16 10 7 11 9 12 11 13
REMARK SMILES IDX 13 14 15 15 8 16 14 17
REMARK H PARENT
ROOT
ATOM      1  C   UNL     1     -30.907  11.800   7.632  1.00  0.00    +0.093 C 
ATOM      2  C   UNL     1     -30.800  10.687   6.624  1.00  0.00    +0.161 C 
ATOM      3  O   UNL     1     -31.493  10.632   5.614  1.00  0.00    -0.294 OA
ENDROOT
BRANCH   2   4
ATOM      4  C   UNL     1     -29.802   9.632   6.900  1.00  0.00    +0.033 A 
ATOM      5  C   UNL     1     -30.245   8.418   7.489  1.00  0.00    -0.007 A 
ATOM      6  C   UNL     1     -28.438   9.896   6.608  1.00  0.00    -0.007 A 
ATOM      7  C   UNL     1     -31.601   8.111   7.766  1.00  0.00    +0.009 A 
ATOM      8  C   UNL     1     -29.270   7.453   7.818  1.00  0.00    -0.017 A 
ATOM      9  C   UNL     1     -27.491   8.909   6.951  1.00  0.00    -0.017 A 
ATOM     10  C   UNL     1     -27.966  11.083   5.995  1.00  0.00    +0.009 A 
ATOM     11  C   UNL     1     -31.971   6.901   8.356  1.00  0.00    +0.001 A 
ATOM     12  C   UNL     1     -29.657   6.240   8.413  1.00  0.00    +0.009 A 
ATOM     13  C   UNL     1     -27.916   7.712   7.549  1.00  0.00    +0.017 A 
ATOM     14  C   UNL     1     -26.126   9.128   6.692  1.00  0.00    +0.009 A 
ATOM     15  C   UNL     1     -26.609  11.286   5.743  1.00  0.00    +0.001 A 
ATOM     16  C   UNL     1     -30.997   5.966   8.682  1.00  0.00    +0.001 A 
ATOM     17  C   UNL     1     -25.688  10.308   6.095  1.00  0.00    +0.001 A 
ENDBRANCH   2   4
TORSDOF 1
ENDMDL
MODEL 7
REMARK VINA RESULT:    -7.731      7.808     10.079
REMARK INTER + INTRA:          -8.372
REMARK INTER:                  -8.141
REMARK INTRA:                  -0.231
REMARK UNBOUND:                -0.188
REMARK SMILES CC(=O)c1c2ccccc2cc2ccccc12
REMARK SMILES IDX 1 1 2 2 3 3 4 4 5 5 17 6 6 7 10 8 12 9 16 10 7 11 9 12 11 13
REMARK SMILES IDX 13 14 15 15 8 16 14 17
REMARK H PARENT
ROOT
ATOM      1  C   UNL     1     -26.141   3.983  12.595  1.00  0.00    +0.093 C 
ATOM      2  C   UNL     1     -26.142   3.631  11.131  1.00  0.00    +0.161 C 
ATOM      3  O   UNL     1     -26.187   4.474  10.242  1.00  0.00    -0.294 OA
ENDROOT
BRANCH   2   4
ATOM      4  C   UNL     1     -26.084   2.193  10.791  1.00  0.00    +0.033 A 
ATOM      5  C   UNL     1     -27.305   1.493  10.600  1.00  0.00    -0.007 A 
ATOM      6  C   UNL     1     -24.814   1.565  10.717  1.00  0.00    -0.007 A 
ATOM      7  C   UNL     1     -28.588   2.095  10.639  1.00  0.00    +0.009 A 
ATOM      8  C   UNL     1     -27.234   0.106  10.354  1.00  0.00    -0.017 A 
ATOM      9  C   UNL     1     -24.781   0.177  10.469  1.00  0.00    -0.017 A 
ATOM     10  C   UNL     1     -23.577   2.239  10.873  1.00  0.00    +0.009 A 
ATOM     11  C   UNL     1     -29.751   1.347  10.452  1.00  0.00    +0.001 A 
ATOM     12  C   UNL     1     -28.415  -0.635  10.170  1.00  0.00    +0.009 A 
ATOM     13  C   UNL     1     -25.983  -0.529  10.296  1.00  0.00    +0.017 A 
ATOM     14  C   UNL     1     -23.547  -0.494  10.398  1.00  0.00    +0.009 A 
ATOM     15  C   UNL     1     -22.359   1.561  10.798  1.00  0.00    +0.001 A 
ATOM     16  C   UNL     1     -29.665  -0.018  10.220  1.00  0.00    +0.001 A 
ATOM     17  C   UNL     1     -22.345   0.193  10.563  1.00  0.00    +0.001 A 
ENDBRANCH   2   4
TORSDOF 1
ENDMDL
MODEL 8
REMARK VINA RESULT:    -7.688      9.125     11.269
REMARK INTER + INTRA:          -8.326
REMARK INTER:                  -8.141
REMARK INTRA:                  -0.185
REMARK UNBOUND:                -0.188
REMARK SMILES CC(=O)c1c2ccccc2cc2ccccc12
REMARK SMILES IDX 1 1 2 2 3 3 4 4 5 5 17 6 6 7 10 8 12 9 16 10 7 11 9 12 11 13
REMARK SMILES IDX 13 14 15 15 8 16 14 17
REMARK H PARENT
ROOT
ATOM      1  C   UNL     1     -36.725   6.396  11.572  1.00  0.00    +0.093 C 
ATOM      2  C   UNL     1     -36.627   5.680  10.251  1.00  0.00    +0.161 C 
ATOM      3  O   UNL     1     -36.937   6.201   9.186  1.00  0.00    -0.294 OA
ENDROOT
BRANCH   2   4
ATOM      4  C   UNL     1     -36.130   4.288  10.282  1.00  0.00    +0.033 A 
ATOM      5  C   UNL     1     -37.036   3.253  10.635  1.00  0.00    -0.007 A 
ATOM      6  C   UNL     1     -34.758   4.052  10.006  1.00  0.00    -0.007 A 
ATOM      7  C   UNL     1     -38.417   3.450  10.889  1.00  0.00    +0.009 A 
ATOM      8  C   UNL     1     -36.527   1.941  10.737  1.00  0.00    -0.017 A 
ATOM      9  C   UNL     1     -34.284   2.729  10.117  1.00  0.00    -0.017 A 
ATOM     10  C   UNL     1     -33.834   5.057   9.623  1.00  0.00    +0.009 A 
ATOM     11  C   UNL     1     -39.253   2.390  11.241  1.00  0.00    +0.001 A 
ATOM     12  C   UNL     1     -37.382   0.884  11.094  1.00  0.00    +0.009 A 
ATOM     13  C   UNL     1     -35.168   1.700  10.482  1.00  0.00    +0.017 A 
ATOM     14  C   UNL     1     -32.930   2.445   9.864  1.00  0.00    +0.009 A 
ATOM     15  C   UNL     1     -32.494   4.761   9.373  1.00  0.00    +0.001 A 
ATOM     16  C   UNL     1     -38.735   1.107  11.346  1.00  0.00    +0.001 A 
ATOM     17  C   UNL     1     -32.041   3.454   9.496  1.00  0.00    +0.001 A 
ENDBRANCH   2   4
TORSDOF 1
ENDMDL
MODEL 9
REMARK VINA RESULT:    -7.684      7.077      9.756
REMARK INTER + INTRA:          -8.322
REMARK INTER:                  -8.099
REMARK INTRA:                  -0.223
REMARK UNBOUND:                -0.188
REMARK SMILES CC(=O)c1c2ccccc2cc2ccccc12
REMARK SMILES IDX 1 1 2 2 3 3 4 4 5 5 17 6 6 7 10 8 12 9 16 10 7 11 9 12 11 13
REMARK SMILES IDX 13 14 15 15 8 16 14 17
REMARK H PARENT
ROOT
ATOM      1  C   UNL     1     -25.933   4.350  10.166  1.00  0.00    +0.093 C 
ATOM      2  C   UNL     1     -25.854   3.513  11.414  1.00  0.00    +0.161 C 
ATOM      3  O   UNL     1     -25.862   3.993  12.542  1.00  0.00    -0.294 OA
ENDROOT
BRANCH   2   4
ATOM      4  C   UNL     1     -25.764   2.048  11.230  1.00  0.00    +0.033 A 
ATOM      5  C   UNL     1     -24.488   1.472  10.994  1.00  0.00    -0.007 A 
ATOM      6  C   UNL     1     -26.963   1.288  11.249  1.00  0.00    -0.007 A 
ATOM      7  C   UNL     1     -23.270   2.197  10.997  1.00  0.00    +0.009 A 
ATOM      8  C   UNL     1     -24.430   0.085  10.742  1.00  0.00    -0.017 A 
ATOM      9  C   UNL     1     -26.868  -0.095  10.993  1.00  0.00    -0.017 A 
ATOM     10  C   UNL     1     -28.248   1.826  11.510  1.00  0.00    +0.009 A 
ATOM     11  C   UNL     1     -22.047   1.572  10.748  1.00  0.00    +0.001 A 
ATOM     12  C   UNL     1     -23.191  -0.531  10.492  1.00  0.00    +0.009 A 
ATOM     13  C   UNL     1     -25.612  -0.672  10.742  1.00  0.00    +0.017 A 
ATOM     14  C   UNL     1     -28.028  -0.889  10.990  1.00  0.00    +0.009 A 
ATOM     15  C   UNL     1     -29.391   1.026  11.505  1.00  0.00    +0.001 A 
ATOM     16  C   UNL     1     -22.009   0.208  10.493  1.00  0.00    +0.001 A 
ATOM     17  C   UNL     1     -29.281  -0.333  11.242  1.00  0.00    +0.001 A 
ENDBRANCH   2   4
TORSDOF 1
ENDMDL
