MODEL 1
REMARK VINA RESULT:    -9.704      0.000      0.000
REMARK INTER + INTRA:         -10.809
REMARK INTER:                 -10.555
REMARK INTRA:                  -0.253
REMARK UNBOUND:                -0.253
REMARK SMILES O=Cc1c(O)ccc2ccc3ccccc3c12
REMARK SMILES IDX 4 1 6 2 7 3 8 4 9 5 10 6 11 7 16 8 15 9 14 10 13 11 12 12
REMARK SMILES IDX 17 13 3 14 5 15 2 17 1 18
REMARK H PARENT 5 16
ROOT
ATOM      1  C   UNL     1     -26.458  11.158   5.634  1.00  0.00    +0.126 A 
ATOM      2  C   UNL     1     -26.945  12.376   5.200  1.00  0.00    +0.047 A 
ATOM      3  C   UNL     1     -28.277  12.690   5.430  1.00  0.00    +0.012 A 
ATOM      4  C   UNL     1     -29.151  11.771   6.032  1.00  0.00    -0.017 A 
ATOM      5  C   UNL     1     -30.467  12.179   6.253  1.00  0.00    +0.009 A 
ATOM      6  C   UNL     1     -31.397  11.322   6.828  1.00  0.00    +0.009 A 
ATOM      7  C   UNL     1     -31.060  10.005   7.125  1.00  0.00    -0.018 A 
ATOM      8  C   UNL     1     -29.741   9.534   6.884  1.00  0.00    -0.010 A 
ATOM      9  C   UNL     1     -29.556   8.137   7.078  1.00  0.00    +0.009 A 
ATOM     10  C   UNL     1     -30.558   7.295   7.573  1.00  0.00    +0.001 A 
ATOM     11  C   UNL     1     -31.807   7.810   7.871  1.00  0.00    +0.001 A 
ATOM     12  C   UNL     1     -32.059   9.156   7.635  1.00  0.00    +0.009 A 
ATOM     13  C   UNL     1     -28.720  10.468   6.413  1.00  0.00    +0.004 A 
ATOM     14  C   UNL     1     -27.309  10.237   6.273  1.00  0.00    +0.065 A 
ENDROOT
BRANCH   1  15
ATOM     15  O   UNL     1     -25.120  10.944   5.434  1.00  0.00    -0.507 OA
ATOM     16  H   UNL     1     -24.797  10.331   6.133  1.00  0.00    +0.293 HD
ENDBRANCH   1  15
BRANCH  14  17
ATOM     17  C   UNL     1     -26.645   9.103   6.948  1.00  0.00    +0.264 C 
ATOM     18  O   UNL     1     -25.563   9.242   7.512  1.00  0.00    -0.298 OA
ENDBRANCH  14  17
TORSDOF 2
ENDMDL
MODEL 2
REMARK VINA RESULT:    -9.644      2.698      4.604
REMARK INTER + INTRA:         -10.743
REMARK INTER:                 -10.445
REMARK INTRA:                  -0.298
REMARK UNBOUND:                -0.253
REMARK SMILES O=Cc1c(O)ccc2ccc3ccccc3c12
REMARK SMILES IDX 4 1 6 2 7 3 8 4 9 5 10 6 11 7 16 8 15 9 14 10 13 11 12 12
REMARK SMILES IDX 17 13 3 14 5 15 2 17 1 18
REMARK H PARENT 5 16
ROOT
ATOM      1  C   UNL     1     -31.636  10.222   7.581  1.00  0.00    +0.126 A 
ATOM      2  C   UNL     1     -31.394  11.511   7.147  1.00  0.00    +0.047 A 
ATOM      3  C   UNL     1     -30.159  11.814   6.592  1.00  0.00    +0.012 A 
ATOM      4  C   UNL     1     -29.133  10.858   6.525  1.00  0.00    -0.017 A 
ATOM      5  C   UNL     1     -27.932  11.238   5.924  1.00  0.00    +0.009 A 
ATOM      6  C   UNL     1     -26.863  10.356   5.834  1.00  0.00    +0.009 A 
ATOM      7  C   UNL     1     -26.936   9.092   6.415  1.00  0.00    -0.018 A 
ATOM      8  C   UNL     1     -28.125   8.675   7.069  1.00  0.00    -0.010 A 
ATOM      9  C   UNL     1     -28.030   7.433   7.757  1.00  0.00    +0.009 A 
ATOM     10  C   UNL     1     -26.891   6.621   7.712  1.00  0.00    +0.001 A 
ATOM     11  C   UNL     1     -25.781   7.029   6.996  1.00  0.00    +0.001 A 
ATOM     12  C   UNL     1     -25.799   8.266   6.363  1.00  0.00    +0.009 A 
ATOM     13  C   UNL     1     -29.302   9.542   7.043  1.00  0.00    +0.004 A 
ATOM     14  C   UNL     1     -30.633   9.238   7.489  1.00  0.00    +0.065 A 
ENDROOT
BRANCH   1  15
ATOM     15  O   UNL     1     -32.898   9.978   8.055  1.00  0.00    -0.507 OA
ATOM     16  H   UNL     1     -32.834   9.310   8.776  1.00  0.00    +0.293 HD
ENDBRANCH   1  15
BRANCH  14  17
ATOM     17  C   UNL     1     -31.072   7.844   7.707  1.00  0.00    +0.264 C 
ATOM     18  O   UNL     1     -31.941   7.333   7.007  1.00  0.00    -0.298 OA
ENDBRANCH  14  17
TORSDOF 2
ENDMDL
MODEL 3
REMARK VINA RESULT:    -9.557      1.379      3.749
REMARK INTER + INTRA:         -10.649
REMARK INTER:                 -10.338
REMARK INTRA:                  -0.311
REMARK UNBOUND:                -0.253
REMARK SMILES O=Cc1c(O)ccc2ccc3ccccc3c12
REMARK SMILES IDX 4 1 6 2 7 3 8 4 9 5 10 6 11 7 16 8 15 9 14 10 13 11 12 12
REMARK SMILES IDX 17 13 3 14 5 15 2 17 1 18
REMARK H PARENT 5 16
ROOT
ATOM      1  C   UNL     1     -25.305   8.031   6.914  1.00  0.00    +0.126 A 
ATOM      2  C   UNL     1     -25.600   6.885   7.627  1.00  0.00    +0.047 A 
ATOM      3  C   UNL     1     -26.922   6.610   7.945  1.00  0.00    +0.012 A 
ATOM      4  C   UNL     1     -27.954   7.504   7.617  1.00  0.00    -0.017 A 
ATOM      5  C   UNL     1     -29.259   7.137   7.948  1.00  0.00    +0.009 A 
ATOM      6  C   UNL     1     -30.332   7.975   7.673  1.00  0.00    +0.009 A 
ATOM      7  C   UNL     1     -30.124   9.240   7.131  1.00  0.00    -0.018 A 
ATOM      8  C   UNL     1     -28.809   9.672   6.811  1.00  0.00    -0.010 A 
ATOM      9  C   UNL     1     -28.703  11.033   6.413  1.00  0.00    +0.009 A 
ATOM     10  C   UNL     1     -29.814  11.867   6.240  1.00  0.00    +0.001 A 
ATOM     11  C   UNL     1     -31.085  11.382   6.485  1.00  0.00    +0.001 A 
ATOM     12  C   UNL     1     -31.237  10.078   6.942  1.00  0.00    +0.009 A 
ATOM     13  C   UNL     1     -27.691   8.743   6.965  1.00  0.00    +0.004 A 
ATOM     14  C   UNL     1     -26.330   8.923   6.543  1.00  0.00    +0.065 A 
ENDROOT
BRANCH   1  15
ATOM     15  O   UNL     1     -23.989   8.204   6.576  1.00  0.00    -0.507 OA
ATOM     16  H   UNL     1     -23.509   8.544   7.365  1.00  0.00    +0.293 HD
ENDBRANCH   1  15
BRANCH  14  17
ATOM     17  C   UNL     1     -25.962   9.955   5.551  1.00  0.00    +0.264 C 
ATOM     18  O   UNL     1     -25.196  10.871   5.838  1.00  0.00    -0.298 OA
ENDBRANCH  14  17
TORSDOF 2
ENDMDL
MODEL 4
REMARK VINA RESULT:    -9.384      1.454      4.299
REMARK INTER + INTRA:         -10.460
REMARK INTER:                 -10.147
REMARK INTRA:                  -0.313
REMARK UNBOUND:                -0.253
REMARK SMILES O=Cc1c(O)ccc2ccc3ccccc3c12
REMARK SMILES IDX 4 1 6 2 7 3 8 4 9 5 10 6 11 7 16 8 15 9 14 10 13 11 12 12
REMARK SMILES IDX 17 13 3 14 5 15 2 17 1 18
REMARK H PARENT 5 16
ROOT
ATOM      1  C   UNL     1     -26.493   7.024   7.484  1.00  0.00    +0.126 A 
ATOM      2  C   UNL     1     -27.616   6.572   8.151  1.00  0.00    +0.047 A 
ATOM      3  C   UNL     1     -28.783   7.320   8.088  1.00  0.00    +0.012 A 
ATOM      4  C   UNL     1     -28.826   8.555   7.420  1.00  0.00    -0.017 A 
ATOM      5  C   UNL     1     -30.047   9.228   7.380  1.00  0.00    +0.009 A 
ATOM      6  C   UNL     1     -30.167  10.462   6.754  1.00  0.00    +0.009 A 
ATOM      7  C   UNL     1     -29.050  11.097   6.219  1.00  0.00    -0.018 A 
ATOM      8  C   UNL     1     -27.778  10.467   6.268  1.00  0.00    -0.010 A 
ATOM      9  C   UNL     1     -26.689  11.273   5.835  1.00  0.00    +0.009 A 
ATOM     10  C   UNL     1     -26.855  12.554   5.296  1.00  0.00    +0.001 A 
ATOM     11  C   UNL     1     -28.121  13.100   5.192  1.00  0.00    +0.001 A 
ATOM     12  C   UNL     1     -29.211  12.379   5.664  1.00  0.00    +0.009 A 
ATOM     13  C   UNL     1     -27.671   9.108   6.797  1.00  0.00    +0.004 A 
ATOM     14  C   UNL     1     -26.525   8.242   6.778  1.00  0.00    +0.065 A 
ENDROOT
BRANCH   1  15
ATOM     15  O   UNL     1     -25.398   6.202   7.533  1.00  0.00    -0.507 OA
ATOM     16  H   UNL     1     -24.590   6.761   7.483  1.00  0.00    +0.293 HD
ENDBRANCH   1  15
BRANCH  14  17
ATOM     17  C   UNL     1     -25.384   8.495   5.874  1.00  0.00    +0.264 C 
ATOM     18  O   UNL     1     -24.256   8.700   6.313  1.00  0.00    -0.298 OA
ENDBRANCH  14  17
TORSDOF 2
ENDMDL
MODEL 5
REMARK VINA RESULT:    -9.228      2.439      5.500
REMARK INTER + INTRA:         -10.291
REMARK INTER:                 -10.293
REMARK INTRA:                   0.002
REMARK UNBOUND:                -0.253
REMARK SMILES O=Cc1c(O)ccc2ccc3ccccc3c12
REMARK SMILES IDX 4 1 6 2 7 3 8 4 9 5 10 6 11 7 16 8 15 9 14 10 13 11 12 12
REMARK SMILES IDX 17 13 3 14 5 15 2 17 1 18
REMARK H PARENT 5 16
ROOT
ATOM      1  C   UNL     1     -31.932   9.179   7.565  1.00  0.00    +0.126 A 
ATOM      2  C   UNL     1     -31.675   7.848   7.832  1.00  0.00    +0.047 A 
ATOM      3  C   UNL     1     -30.370   7.385   7.757  1.00  0.00    +0.012 A 
ATOM      4  C   UNL     1     -29.319   8.223   7.349  1.00  0.00    -0.017 A 
ATOM      5  C   UNL     1     -28.032   7.685   7.328  1.00  0.00    +0.009 A 
ATOM      6  C   UNL     1     -26.943   8.444   6.920  1.00  0.00    +0.009 A 
ATOM      7  C   UNL     1     -27.120   9.740   6.444  1.00  0.00    -0.018 A 
ATOM      8  C   UNL     1     -28.417  10.318   6.412  1.00  0.00    -0.010 A 
ATOM      9  C   UNL     1     -28.498  11.581   5.764  1.00  0.00    +0.009 A 
ATOM     10  C   UNL     1     -27.376  12.266   5.284  1.00  0.00    +0.001 A 
ATOM     11  C   UNL     1     -26.119  11.703   5.406  1.00  0.00    +0.001 A 
ATOM     12  C   UNL     1     -25.995  10.439   5.972  1.00  0.00    +0.009 A 
ATOM     13  C   UNL     1     -29.547   9.578   6.973  1.00  0.00    +0.004 A 
ATOM     14  C   UNL     1     -30.888  10.045   7.190  1.00  0.00    +0.065 A 
ENDROOT
BRANCH   1  15
ATOM     15  O   UNL     1     -33.232   9.581   7.726  1.00  0.00    -0.507 OA
ATOM     16  H   UNL     1     -33.608   9.109   8.503  1.00  0.00    +0.293 HD
ENDBRANCH   1  15
BRANCH  14  17
ATOM     17  C   UNL     1     -31.207  11.488   7.205  1.00  0.00    +0.264 C 
ATOM     18  O   UNL     1     -30.733  12.236   8.056  1.00  0.00    -0.298 OA
ENDBRANCH  14  17
TORSDOF 2
ENDMDL
MODEL 6
REMARK VINA RESULT:    -8.107      2.360      5.224
REMARK INTER + INTRA:          -9.071
REMARK INTER:                  -8.788
REMARK INTRA:                  -0.283
REMARK UNBOUND:                -0.253
REMARK SMILES O=Cc1c(O)ccc2ccc3ccccc3c12
REMARK SMILES IDX 4 1 6 2 7 3 8 4 9 5 10 6 11 7 16 8 15 9 14 10 13 11 12 12
REMARK SMILES IDX 17 13 3 14 5 15 2 17 1 18
REMARK H PARENT 5 16
ROOT
ATOM      1  C   UNL     1     -31.108  10.034   6.942  1.00  0.00    +0.126 A 
ATOM      2  C   UNL     1     -31.801   8.930   7.400  1.00  0.00    +0.047 A 
ATOM      3  C   UNL     1     -31.091   7.815   7.820  1.00  0.00    +0.012 A 
ATOM      4  C   UNL     1     -29.691   7.761   7.725  1.00  0.00    -0.017 A 
ATOM      5  C   UNL     1     -29.053   6.613   8.197  1.00  0.00    +0.009 A 
ATOM      6  C   UNL     1     -27.673   6.476   8.123  1.00  0.00    +0.009 A 
ATOM      7  C   UNL     1     -26.896   7.450   7.501  1.00  0.00    -0.018 A 
ATOM      8  C   UNL     1     -27.505   8.619   6.973  1.00  0.00    -0.010 A 
ATOM      9  C   UNL     1     -26.639   9.464   6.225  1.00  0.00    +0.009 A 
ATOM     10  C   UNL     1     -25.265   9.231   6.101  1.00  0.00    +0.001 A 
ATOM     11  C   UNL     1     -24.697   8.121   6.699  1.00  0.00    +0.001 A 
ATOM     12  C   UNL     1     -25.512   7.228   7.384  1.00  0.00    +0.009 A 
ATOM     13  C   UNL     1     -28.937   8.836   7.174  1.00  0.00    +0.004 A 
ATOM     14  C   UNL     1     -29.702  10.015   6.873  1.00  0.00    +0.065 A 
ENDROOT
BRANCH   1  15
ATOM     15  O   UNL     1     -31.870  11.122   6.609  1.00  0.00    -0.507 OA
ATOM     16  H   UNL     1     -31.927  11.171   5.627  1.00  0.00    +0.293 HD
ENDBRANCH   1  15
BRANCH  14  17
ATOM     17  C   UNL     1     -29.047  11.320   6.649  1.00  0.00    +0.264 C 
ATOM     18  O   UNL     1     -29.415  12.071   5.750  1.00  0.00    -0.298 OA
ENDBRANCH  14  17
TORSDOF 2
ENDMDL
MODEL 7
REMARK VINA RESULT:    -7.780      9.122     10.316
REMARK INTER + INTRA:          -8.715
REMARK INTER:                  -8.451
REMARK INTRA:                  -0.265
REMARK UNBOUND:                -0.253
REMARK SMILES O=Cc1c(O)ccc2ccc3ccccc3c12
REMARK SMILES IDX 4 1 6 2 7 3 8 4 9 5 10 6 11 7 16 8 15 9 14 10 13 11 12 12
REMARK SMILES IDX 17 13 3 14 5 15 2 17 1 18
REMARK H PARENT 5 16
ROOT
ATOM      1  C   UNL     1     -25.912   2.939  10.520  1.00  0.00    +0.126 A 
ATOM      2  C   UNL     1     -25.857   3.644  11.707  1.00  0.00    +0.047 A 
ATOM      3  C   UNL     1     -26.700   3.280  12.747  1.00  0.00    +0.012 A 
ATOM      4  C   UNL     1     -27.651   2.258  12.594  1.00  0.00    -0.017 A 
ATOM      5  C   UNL     1     -28.439   1.936  13.700  1.00  0.00    +0.009 A 
ATOM      6  C   UNL     1     -29.413   0.949  13.624  1.00  0.00    +0.009 A 
ATOM      7  C   UNL     1     -29.683   0.310  12.417  1.00  0.00    -0.018 A 
ATOM      8  C   UNL     1     -28.931   0.631  11.255  1.00  0.00    -0.010 A 
ATOM      9  C   UNL     1     -29.398   0.034  10.052  1.00  0.00    +0.009 A 
ATOM     10  C   UNL     1     -30.450  -0.888  10.015  1.00  0.00    +0.001 A 
ATOM     11  C   UNL     1     -31.105  -1.234  11.183  1.00  0.00    +0.001 A 
ATOM     12  C   UNL     1     -30.731  -0.626  12.375  1.00  0.00    +0.009 A 
ATOM     13  C   UNL     1     -27.810   1.565  11.361  1.00  0.00    +0.004 A 
ATOM     14  C   UNL     1     -26.833   1.887  10.358  1.00  0.00    +0.065 A 
ENDROOT
BRANCH   1  15
ATOM     15  O   UNL     1     -25.005   3.309   9.562  1.00  0.00    -0.507 OA
ATOM     16  H   UNL     1     -24.240   2.691   9.606  1.00  0.00    +0.293 HD
ENDBRANCH   1  15
BRANCH  14  17
ATOM     17  C   UNL     1     -26.624   1.019   9.180  1.00  0.00    +0.264 C 
ATOM     18  O   UNL     1     -25.496   0.698   8.818  1.00  0.00    -0.298 OA
ENDBRANCH  14  17
TORSDOF 2
ENDMDL
MODEL 8
REMARK VINA RESULT:    -7.756      6.625      9.229
REMARK INTER + INTRA:          -8.689
REMARK INTER:                  -8.392
REMARK INTRA:                  -0.298
REMARK UNBOUND:                -0.253
REMARK SMILES O=Cc1c(O)ccc2ccc3ccccc3c12
REMARK SMILES IDX 4 1 6 2 7 3 8 4 9 5 10 6 11 7 16 8 15 9 14 10 13 11 12 12
REMARK SMILES IDX 17 13 3 14 5 15 2 17 1 18
REMARK H PARENT 5 16
ROOT
ATOM      1  C   UNL     1     -34.814   2.326   9.504  1.00  0.00    +0.126 A 
ATOM      2  C   UNL     1     -33.812   2.311  10.455  1.00  0.00    +0.047 A 
ATOM      3  C   UNL     1     -32.835   3.296  10.420  1.00  0.00    +0.012 A 
ATOM      4  C   UNL     1     -32.806   4.261   9.401  1.00  0.00    -0.017 A 
ATOM      5  C   UNL     1     -31.806   5.233   9.457  1.00  0.00    +0.009 A 
ATOM      6  C   UNL     1     -31.700   6.211   8.477  1.00  0.00    +0.009 A 
ATOM      7  C   UNL     1     -32.541   6.199   7.368  1.00  0.00    -0.018 A 
ATOM      8  C   UNL     1     -33.551   5.207   7.249  1.00  0.00    -0.010 A 
ATOM      9  C   UNL     1     -34.244   5.199   6.007  1.00  0.00    +0.009 A 
ATOM     10  C   UNL     1     -34.032   6.156   5.008  1.00  0.00    +0.001 A 
ATOM     11  C   UNL     1     -33.094   7.154   5.197  1.00  0.00    +0.001 A 
ATOM     12  C   UNL     1     -32.343   7.166   6.367  1.00  0.00    +0.009 A 
ATOM     13  C   UNL     1     -33.762   4.262   8.345  1.00  0.00    +0.004 A 
ATOM     14  C   UNL     1     -34.824   3.307   8.494  1.00  0.00    +0.065 A 
ENDROOT
BRANCH   1  15
ATOM     15  O   UNL     1     -35.782   1.366   9.640  1.00  0.00    -0.507 OA
ATOM     16  H   UNL     1     -35.716   0.987  10.546  1.00  0.00    +0.293 HD
ENDBRANCH   1  15
BRANCH  14  17
ATOM     17  C   UNL     1     -36.071   3.414   7.709  1.00  0.00    +0.264 C 
ATOM     18  O   UNL     1     -37.148   3.649   8.251  1.00  0.00    -0.298 OA
ENDBRANCH  14  17
TORSDOF 2
ENDMDL
MODEL 9
REMARK VINA RESULT:    -7.616      7.378     10.956
REMARK INTER + INTRA:          -8.537
REMARK INTER:                  -8.241
REMARK INTRA:                  -0.296
REMARK UNBOUND:                -0.253
REMARK SMILES O=Cc1c(O)ccc2ccc3ccccc3c12
REMARK SMILES IDX 4 1 6 2 7 3 8 4 9 5 10 6 11 7 16 8 15 9 14 10 13 11 12 12
REMARK SMILES IDX 17 13 3 14 5 15 2 17 1 18
REMARK H PARENT 5 16
ROOT
ATOM      1  C   UNL     1     -38.515   3.791  10.072  1.00  0.00    +0.126 A 
ATOM      2  C   UNL     1     -38.174   2.625  10.730  1.00  0.00    +0.047 A 
ATOM      3  C   UNL     1     -36.832   2.323  10.915  1.00  0.00    +0.012 A 
ATOM      4  C   UNL     1     -35.820   3.140  10.388  1.00  0.00    -0.017 A 
ATOM      5  C   UNL     1     -34.496   2.779  10.645  1.00  0.00    +0.009 A 
ATOM      6  C   UNL     1     -33.438   3.526  10.145  1.00  0.00    +0.009 A 
ATOM      7  C   UNL     1     -33.670   4.612   9.305  1.00  0.00    -0.018 A 
ATOM      8  C   UNL     1     -35.000   4.996   8.986  1.00  0.00    -0.010 A 
ATOM      9  C   UNL     1     -35.113   6.015   8.001  1.00  0.00    +0.009 A 
ATOM     10  C   UNL     1     -34.006   6.675   7.456  1.00  0.00    +0.001 A 
ATOM     11  C   UNL     1     -32.729   6.326   7.853  1.00  0.00    +0.001 A 
ATOM     12  C   UNL     1     -32.563   5.289   8.764  1.00  0.00    +0.009 A 
ATOM     13  C   UNL     1     -36.120   4.303   9.622  1.00  0.00    +0.004 A 
ATOM     14  C   UNL     1     -37.514   4.644   9.568  1.00  0.00    +0.065 A 
ENDROOT
BRANCH   1  15
ATOM     15  O   UNL     1     -39.855   4.059   9.986  1.00  0.00    -0.507 OA
ATOM     16  H   UNL     1     -40.350   3.254  10.261  1.00  0.00    +0.293 HD
ENDBRANCH   1  15
BRANCH  14  17
ATOM     17  C   UNL     1     -37.962   5.986   9.142  1.00  0.00    +0.264 C 
ATOM     18  O   UNL     1     -38.617   6.706   9.890  1.00  0.00    -0.298 OA
ENDBRANCH  14  17
TORSDOF 2
ENDMDL
