MODEL 1
REMARK VINA RESULT:   -10.721      0.000      0.000
REMARK INTER + INTRA:         -14.531
REMARK INTER:                 -13.854
REMARK INTRA:                  -0.677
REMARK UNBOUND:                -0.677
REMARK SMILES CC(=NN=C(C)c1cccc([N+](=O)[O-])c1)c1cccc([N+](=O)[O-])c1
REMARK SMILES IDX 1 1 2 2 3 3 16 4 17 5 24 6 18 7 20 8 19 9 21 10 22 11 23 12
REMARK SMILES IDX 4 13 5 14 6 15 7 16 15 17 8 18 11 19 9 20 10 21 12 22 13 23
REMARK SMILES IDX 14 24
REMARK H PARENT
ROOT
ATOM      1  C   UNL     1     -25.463   6.517   7.404  1.00  0.00    +0.069 C 
ATOM      2  C   UNL     1     -26.592   6.044   8.299  1.00  0.00    +0.067 C 
ATOM      3  N   UNL     1     -27.640   6.768   8.572  1.00  0.00    -0.155 NA
ENDROOT
BRANCH   2   4
ATOM      4  C   UNL     1     -26.494   4.686   8.909  1.00  0.00    +0.004 A 
ATOM      5  C   UNL     1     -27.674   3.985   9.200  1.00  0.00    +0.010 A 
ATOM      6  C   UNL     1     -25.255   4.116   9.220  1.00  0.00    +0.095 A 
ATOM      7  C   UNL     1     -27.624   2.716   9.779  1.00  0.00    +0.008 A 
ATOM      8  C   UNL     1     -25.212   2.840   9.803  1.00  0.00    +0.270 A 
ATOM      9  C   UNL     1     -26.392   2.136  10.081  1.00  0.00    +0.085 A 
BRANCH   8  10
ATOM     10  N   UNL     1     -23.914   2.236  10.129  1.00  0.00    +0.062 N 
ATOM     11  O   UNL     1     -23.455   1.395   9.342  1.00  0.00    -0.258 OA
ATOM     12  O   UNL     1     -23.355   2.604  11.170  1.00  0.00    -0.258 OA
ENDBRANCH   8  10
ENDBRANCH   2   4
BRANCH   3  13
ATOM     13  N   UNL     1     -27.627   8.023   7.981  1.00  0.00    -0.155 NA
ATOM     14  C   UNL     1     -28.794   8.427   7.571  1.00  0.00    +0.067 C 
ATOM     15  C   UNL     1     -30.057   7.599   7.709  1.00  0.00    +0.069 C 
BRANCH  14  16
ATOM     16  C   UNL     1     -28.896   9.779   6.945  1.00  0.00    +0.004 A 
ATOM     17  C   UNL     1     -27.852  10.303   6.174  1.00  0.00    +0.095 A 
ATOM     18  C   UNL     1     -30.075  10.518   7.115  1.00  0.00    +0.010 A 
ATOM     19  C   UNL     1     -27.998  11.573   5.596  1.00  0.00    +0.270 A 
ATOM     20  C   UNL     1     -30.212  11.783   6.537  1.00  0.00    +0.008 A 
ATOM     21  C   UNL     1     -29.172  12.317   5.777  1.00  0.00    +0.085 A 
BRANCH  19  22
ATOM     22  N   UNL     1     -26.906  12.129   4.787  1.00  0.00    +0.062 N 
ATOM     23  O   UNL     1     -27.085  13.237   4.263  1.00  0.00    -0.258 OA
ATOM     24  O   UNL     1     -25.872  11.456   4.672  1.00  0.00    -0.258 OA
ENDBRANCH  19  22
ENDBRANCH  14  16
ENDBRANCH   3  13
TORSDOF 5
ENDMDL
MODEL 2
REMARK VINA RESULT:   -10.696      0.085      8.898
REMARK INTER + INTRA:         -14.499
REMARK INTER:                 -13.827
REMARK INTRA:                  -0.672
REMARK UNBOUND:                -0.677
REMARK SMILES CC(=NN=C(C)c1cccc([N+](=O)[O-])c1)c1cccc([N+](=O)[O-])c1
REMARK SMILES IDX 1 1 2 2 3 3 16 4 17 5 24 6 18 7 20 8 19 9 21 10 22 11 23 12
REMARK SMILES IDX 4 13 5 14 6 15 7 16 15 17 8 18 11 19 9 20 10 21 12 22 13 23
REMARK SMILES IDX 14 24
REMARK H PARENT
ROOT
ATOM      1  C   UNL     1     -30.060   7.527   7.723  1.00  0.00    +0.069 C 
ATOM      2  C   UNL     1     -28.802   8.359   7.573  1.00  0.00    +0.067 C 
ATOM      3  N   UNL     1     -27.627   7.957   7.968  1.00  0.00    -0.155 NA
ENDROOT
BRANCH   2   4
ATOM      4  C   UNL     1     -28.914   9.712   6.952  1.00  0.00    +0.004 A 
ATOM      5  C   UNL     1     -30.110  10.430   7.101  1.00  0.00    +0.010 A 
ATOM      6  C   UNL     1     -27.866  10.259   6.205  1.00  0.00    +0.095 A 
ATOM      7  C   UNL     1     -30.257  11.694   6.528  1.00  0.00    +0.008 A 
ATOM      8  C   UNL     1     -28.021  11.529   5.631  1.00  0.00    +0.270 A 
ATOM      9  C   UNL     1     -29.212  12.251   5.791  1.00  0.00    +0.085 A 
BRANCH   8  10
ATOM     10  N   UNL     1     -26.923  12.109   4.848  1.00  0.00    +0.062 N 
ATOM     11  O   UNL     1     -25.850  11.490   4.811  1.00  0.00    -0.258 OA
ATOM     12  O   UNL     1     -27.136  13.183   4.268  1.00  0.00    -0.258 OA
ENDBRANCH   8  10
ENDBRANCH   2   4
BRANCH   3  13
ATOM     13  N   UNL     1     -27.631   6.701   8.555  1.00  0.00    -0.155 NA
ATOM     14  C   UNL     1     -26.560   6.001   8.312  1.00  0.00    +0.067 C 
ATOM     15  C   UNL     1     -25.417   6.501   7.451  1.00  0.00    +0.069 C 
BRANCH  14  16
ATOM     16  C   UNL     1     -26.450   4.641   8.921  1.00  0.00    +0.004 A 
ATOM     17  C   UNL     1     -25.208   4.093   9.256  1.00  0.00    +0.095 A 
ATOM     18  C   UNL     1     -27.624   3.920   9.183  1.00  0.00    +0.010 A 
ATOM     19  C   UNL     1     -25.155   2.817   9.837  1.00  0.00    +0.270 A 
ATOM     20  C   UNL     1     -27.563   2.649   9.761  1.00  0.00    +0.008 A 
ATOM     21  C   UNL     1     -26.328   2.091  10.087  1.00  0.00    +0.085 A 
BRANCH  19  22
ATOM     22  N   UNL     1     -23.854   2.236  10.189  1.00  0.00    +0.062 N 
ATOM     23  O   UNL     1     -23.331   1.461   9.377  1.00  0.00    -0.258 OA
ATOM     24  O   UNL     1     -23.357   2.551  11.280  1.00  0.00    -0.258 OA
ENDBRANCH  19  22
ENDBRANCH  14  16
ENDBRANCH   3  13
TORSDOF 5
ENDMDL
MODEL 3
REMARK VINA RESULT:   -10.116      5.419      8.906
REMARK INTER + INTRA:         -13.749
REMARK INTER:                 -13.086
REMARK INTRA:                  -0.663
REMARK UNBOUND:                -0.677
REMARK SMILES CC(=NN=C(C)c1cccc([N+](=O)[O-])c1)c1cccc([N+](=O)[O-])c1
REMARK SMILES IDX 1 1 2 2 3 3 16 4 17 5 24 6 18 7 20 8 19 9 21 10 22 11 23 12
REMARK SMILES IDX 4 13 5 14 6 15 7 16 15 17 8 18 11 19 9 20 10 21 12 22 13 23
REMARK SMILES IDX 14 24
REMARK H PARENT
ROOT
ATOM      1  C   UNL     1     -32.100  10.060   7.986  1.00  0.00    +0.069 C 
ATOM      2  C   UNL     1     -30.999   9.415   7.167  1.00  0.00    +0.067 C 
ATOM      3  N   UNL     1     -30.929   8.134   6.946  1.00  0.00    -0.155 NA
ENDROOT
BRANCH   2   4
ATOM      4  C   UNL     1     -29.934  10.291   6.594  1.00  0.00    +0.004 A 
ATOM      5  C   UNL     1     -30.227  11.640   6.342  1.00  0.00    +0.010 A 
ATOM      6  C   UNL     1     -28.669   9.785   6.279  1.00  0.00    +0.095 A 
ATOM      7  C   UNL     1     -29.261  12.488   5.799  1.00  0.00    +0.008 A 
ATOM      8  C   UNL     1     -27.703  10.643   5.732  1.00  0.00    +0.270 A 
ATOM      9  C   UNL     1     -27.992  11.994   5.492  1.00  0.00    +0.085 A 
BRANCH   8  10
ATOM     10  N   UNL     1     -26.372  10.119   5.402  1.00  0.00    +0.062 N 
ATOM     11  O   UNL     1     -26.310   9.119   4.673  1.00  0.00    -0.258 OA
ATOM     12  O   UNL     1     -25.390  10.711   5.870  1.00  0.00    -0.258 OA
ENDBRANCH   8  10
ENDBRANCH   2   4
BRANCH   3  13
ATOM     13  N   UNL     1     -31.947   7.404   7.541  1.00  0.00    -0.155 NA
ATOM     14  C   UNL     1     -32.721   6.788   6.694  1.00  0.00    +0.067 C 
ATOM     15  C   UNL     1     -32.541   6.870   5.191  1.00  0.00    +0.069 C 
BRANCH  14  16
ATOM     16  C   UNL     1     -33.834   5.949   7.232  1.00  0.00    +0.004 A 
ATOM     17  C   UNL     1     -34.714   6.444   8.200  1.00  0.00    +0.095 A 
ATOM     18  C   UNL     1     -34.008   4.651   6.730  1.00  0.00    +0.010 A 
ATOM     19  C   UNL     1     -35.751   5.623   8.667  1.00  0.00    +0.270 A 
ATOM     20  C   UNL     1     -35.042   3.839   7.202  1.00  0.00    +0.008 A 
ATOM     21  C   UNL     1     -35.917   4.321   8.175  1.00  0.00    +0.085 A 
BRANCH  19  22
ATOM     22  N   UNL     1     -36.677   6.136   9.685  1.00  0.00    +0.062 N 
ATOM     23  O   UNL     1     -37.744   6.629   9.294  1.00  0.00    -0.258 OA
ATOM     24  O   UNL     1     -36.336   6.049  10.873  1.00  0.00    -0.258 OA
ENDBRANCH  19  22
ENDBRANCH  14  16
ENDBRANCH   3  13
TORSDOF 5
ENDMDL
MODEL 4
REMARK VINA RESULT:    -9.951      1.896      8.998
REMARK INTER + INTRA:         -13.537
REMARK INTER:                 -12.796
REMARK INTRA:                  -0.741
REMARK UNBOUND:                -0.677
REMARK SMILES CC(=NN=C(C)c1cccc([N+](=O)[O-])c1)c1cccc([N+](=O)[O-])c1
REMARK SMILES IDX 1 1 2 2 3 3 16 4 17 5 24 6 18 7 20 8 19 9 21 10 22 11 23 12
REMARK SMILES IDX 4 13 5 14 6 15 7 16 15 17 8 18 11 19 9 20 10 21 12 22 13 23
REMARK SMILES IDX 14 24
REMARK H PARENT
ROOT
ATOM      1  C   UNL     1     -30.079   7.278   7.821  1.00  0.00    +0.069 C 
ATOM      2  C   UNL     1     -28.879   8.198   7.715  1.00  0.00    +0.067 C 
ATOM      3  N   UNL     1     -27.698   7.890   8.171  1.00  0.00    -0.155 NA
ENDROOT
BRANCH   2   4
ATOM      4  C   UNL     1     -29.060   9.529   7.065  1.00  0.00    +0.004 A 
ATOM      5  C   UNL     1     -30.308  10.164   7.154  1.00  0.00    +0.010 A 
ATOM      6  C   UNL     1     -28.024  10.136   6.347  1.00  0.00    +0.095 A 
ATOM      7  C   UNL     1     -30.520  11.405   6.552  1.00  0.00    +0.008 A 
ATOM      8  C   UNL     1     -28.244  11.383   5.743  1.00  0.00    +0.270 A 
ATOM      9  C   UNL     1     -29.488  12.023   5.844  1.00  0.00    +0.085 A 
BRANCH   8  10
ATOM     10  N   UNL     1     -27.159  12.026   4.992  1.00  0.00    +0.062 N 
ATOM     11  O   UNL     1     -26.183  11.330   4.677  1.00  0.00    -0.258 OA
ATOM     12  O   UNL     1     -27.285  13.226   4.715  1.00  0.00    -0.258 OA
ENDBRANCH   8  10
ENDBRANCH   2   4
BRANCH   3  13
ATOM     13  N   UNL     1     -27.637   6.646   8.781  1.00  0.00    -0.155 NA
ATOM     14  C   UNL     1     -26.592   5.945   8.448  1.00  0.00    +0.067 C 
ATOM     15  C   UNL     1     -25.540   6.432   7.471  1.00  0.00    +0.069 C 
BRANCH  14  16
ATOM     16  C   UNL     1     -26.415   4.599   9.070  1.00  0.00    +0.004 A 
ATOM     17  C   UNL     1     -27.508   3.759   9.309  1.00  0.00    +0.095 A 
ATOM     18  C   UNL     1     -25.121   4.166   9.393  1.00  0.00    +0.010 A 
ATOM     19  C   UNL     1     -27.292   2.499   9.885  1.00  0.00    +0.270 A 
ATOM     20  C   UNL     1     -24.913   2.910   9.968  1.00  0.00    +0.008 A 
ATOM     21  C   UNL     1     -25.999   2.071  10.219  1.00  0.00    +0.085 A 
BRANCH  19  22
ATOM     22  N   UNL     1     -28.436   1.614  10.140  1.00  0.00    +0.062 N 
ATOM     23  O   UNL     1     -28.244   0.392  10.069  1.00  0.00    -0.258 OA
ATOM     24  O   UNL     1     -29.525   2.140  10.406  1.00  0.00    -0.258 OA
ENDBRANCH  19  22
ENDBRANCH  14  16
ENDBRANCH   3  13
TORSDOF 5
ENDMDL
MODEL 5
REMARK VINA RESULT:    -9.306      1.217      2.315
REMARK INTER + INTRA:         -12.703
REMARK INTER:                 -12.007
REMARK INTRA:                  -0.696
REMARK UNBOUND:                -0.677
REMARK SMILES CC(=NN=C(C)c1cccc([N+](=O)[O-])c1)c1cccc([N+](=O)[O-])c1
REMARK SMILES IDX 1 1 2 2 3 3 16 4 17 5 24 6 18 7 20 8 19 9 21 10 22 11 23 12
REMARK SMILES IDX 4 13 5 14 6 15 7 16 15 17 8 18 11 19 9 20 10 21 12 22 13 23
REMARK SMILES IDX 14 24
REMARK H PARENT
ROOT
ATOM      1  C   UNL     1     -28.508   3.946   9.173  1.00  0.00    +0.069 C 
ATOM      2  C   UNL     1     -26.993   4.015   9.202  1.00  0.00    +0.067 C 
ATOM      3  N   UNL     1     -26.323   5.107   8.970  1.00  0.00    -0.155 NA
ENDROOT
BRANCH   2   4
ATOM      4  C   UNL     1     -26.231   2.767   9.501  1.00  0.00    +0.004 A 
ATOM      5  C   UNL     1     -26.921   1.546   9.553  1.00  0.00    +0.010 A 
ATOM      6  C   UNL     1     -24.856   2.798   9.758  1.00  0.00    +0.095 A 
ATOM      7  C   UNL     1     -26.245   0.359   9.838  1.00  0.00    +0.008 A 
ATOM      8  C   UNL     1     -24.184   1.601  10.044  1.00  0.00    +0.270 A 
ATOM      9  C   UNL     1     -24.872   0.380  10.083  1.00  0.00    +0.085 A 
BRANCH   8  10
ATOM     10  N   UNL     1     -22.740   1.627  10.311  1.00  0.00    +0.062 N 
ATOM     11  O   UNL     1     -21.990   1.098   9.479  1.00  0.00    -0.258 OA
ATOM     12  O   UNL     1     -22.359   2.179  11.352  1.00  0.00    -0.258 OA
ENDBRANCH   8  10
ENDBRANCH   2   4
BRANCH   3  13
ATOM     13  N   UNL     1     -27.118   6.205   8.677  1.00  0.00    -0.155 NA
ATOM     14  C   UNL     1     -26.667   6.939   7.701  1.00  0.00    +0.067 C 
ATOM     15  C   UNL     1     -25.380   6.637   6.959  1.00  0.00    +0.069 C 
BRANCH  14  16
ATOM     16  C   UNL     1     -27.464   8.132   7.286  1.00  0.00    +0.004 A 
ATOM     17  C   UNL     1     -26.868   9.210   6.623  1.00  0.00    +0.095 A 
ATOM     18  C   UNL     1     -28.842   8.149   7.546  1.00  0.00    +0.010 A 
ATOM     19  C   UNL     1     -27.660  10.304   6.244  1.00  0.00    +0.270 A 
ATOM     20  C   UNL     1     -29.624   9.243   7.166  1.00  0.00    +0.008 A 
ATOM     21  C   UNL     1     -29.036  10.327   6.515  1.00  0.00    +0.085 A 
BRANCH  19  22
ATOM     22  N   UNL     1     -27.040  11.440   5.549  1.00  0.00    +0.062 N 
ATOM     23  O   UNL     1     -27.741  12.440   5.344  1.00  0.00    -0.258 OA
ATOM     24  O   UNL     1     -25.855  11.329   5.205  1.00  0.00    -0.258 OA
ENDBRANCH  19  22
ENDBRANCH  14  16
ENDBRANCH   3  13
TORSDOF 5
ENDMDL
MODEL 6
REMARK VINA RESULT:    -9.213      6.204      7.991
REMARK INTER + INTRA:         -12.582
REMARK INTER:                 -11.937
REMARK INTRA:                  -0.646
REMARK UNBOUND:                -0.677
REMARK SMILES CC(=NN=C(C)c1cccc([N+](=O)[O-])c1)c1cccc([N+](=O)[O-])c1
REMARK SMILES IDX 1 1 2 2 3 3 16 4 17 5 24 6 18 7 20 8 19 9 21 10 22 11 23 12
REMARK SMILES IDX 4 13 5 14 6 15 7 16 15 17 8 18 11 19 9 20 10 21 12 22 13 23
REMARK SMILES IDX 14 24
REMARK H PARENT
ROOT
ATOM      1  C   UNL     1     -32.239   4.963   9.035  1.00  0.00    +0.069 C 
ATOM      2  C   UNL     1     -33.365   5.557   8.212  1.00  0.00    +0.067 C 
ATOM      3  N   UNL     1     -33.176   6.439   7.272  1.00  0.00    -0.155 NA
ENDROOT
BRANCH   2   4
ATOM      4  C   UNL     1     -34.762   5.118   8.498  1.00  0.00    +0.004 A 
ATOM      5  C   UNL     1     -35.207   3.890   7.985  1.00  0.00    +0.010 A 
ATOM      6  C   UNL     1     -35.640   5.919   9.237  1.00  0.00    +0.095 A 
ATOM      7  C   UNL     1     -36.510   3.450   8.224  1.00  0.00    +0.008 A 
ATOM      8  C   UNL     1     -36.947   5.470   9.472  1.00  0.00    +0.270 A 
ATOM      9  C   UNL     1     -37.387   4.237   8.971  1.00  0.00    +0.085 A 
BRANCH   8  10
ATOM     10  N   UNL     1     -37.871   6.305  10.251  1.00  0.00    +0.062 N 
ATOM     11  O   UNL     1     -37.392   7.019  11.143  1.00  0.00    -0.258 OA
ATOM     12  O   UNL     1     -39.075   6.248   9.966  1.00  0.00    -0.258 OA
ENDBRANCH   8  10
ENDBRANCH   2   4
BRANCH   3  13
ATOM     13  N   UNL     1     -31.848   6.802   7.100  1.00  0.00    -0.155 NA
ATOM     14  C   UNL     1     -31.614   8.065   7.309  1.00  0.00    +0.067 C 
ATOM     15  C   UNL     1     -32.692   9.060   7.692  1.00  0.00    +0.069 C 
BRANCH  14  16
ATOM     16  C   UNL     1     -30.209   8.555   7.177  1.00  0.00    +0.004 A 
ATOM     17  C   UNL     1     -29.922   9.791   6.587  1.00  0.00    +0.095 A 
ATOM     18  C   UNL     1     -29.166   7.766   7.684  1.00  0.00    +0.010 A 
ATOM     19  C   UNL     1     -28.588  10.214   6.495  1.00  0.00    +0.270 A 
ATOM     20  C   UNL     1     -27.839   8.194   7.587  1.00  0.00    +0.008 A 
ATOM     21  C   UNL     1     -27.544   9.419   6.990  1.00  0.00    +0.085 A 
BRANCH  19  22
ATOM     22  N   UNL     1     -28.281  11.509   5.875  1.00  0.00    +0.062 N 
ATOM     23  O   UNL     1     -27.179  11.635   5.322  1.00  0.00    -0.258 OA
ATOM     24  O   UNL     1     -29.139  12.400   5.945  1.00  0.00    -0.258 OA
ENDBRANCH  19  22
ENDBRANCH  14  16
ENDBRANCH   3  13
TORSDOF 5
ENDMDL
MODEL 7
REMARK VINA RESULT:    -9.194      5.698      7.006
REMARK INTER + INTRA:         -12.558
REMARK INTER:                 -11.813
REMARK INTRA:                  -0.745
REMARK UNBOUND:                -0.677
REMARK SMILES CC(=NN=C(C)c1cccc([N+](=O)[O-])c1)c1cccc([N+](=O)[O-])c1
REMARK SMILES IDX 1 1 2 2 3 3 16 4 17 5 24 6 18 7 20 8 19 9 21 10 22 11 23 12
REMARK SMILES IDX 4 13 5 14 6 15 7 16 15 17 8 18 11 19 9 20 10 21 12 22 13 23
REMARK SMILES IDX 14 24
REMARK H PARENT
ROOT
ATOM      1  C   UNL     1     -30.673   5.251   8.891  1.00  0.00    +0.069 C 
ATOM      2  C   UNL     1     -32.074   5.714   8.540  1.00  0.00    +0.067 C 
ATOM      3  N   UNL     1     -32.318   6.745   7.783  1.00  0.00    -0.155 NA
ENDROOT
BRANCH   2   4
ATOM      4  C   UNL     1     -33.233   4.957   9.098  1.00  0.00    +0.004 A 
ATOM      5  C   UNL     1     -32.992   3.757   9.786  1.00  0.00    +0.010 A 
ATOM      6  C   UNL     1     -34.547   5.403   8.922  1.00  0.00    +0.095 A 
ATOM      7  C   UNL     1     -34.050   3.016  10.314  1.00  0.00    +0.008 A 
ATOM      8  C   UNL     1     -35.605   4.653   9.456  1.00  0.00    +0.270 A 
ATOM      9  C   UNL     1     -35.363   3.461  10.154  1.00  0.00    +0.085 A 
BRANCH   8  10
ATOM     10  N   UNL     1     -36.986   5.119   9.277  1.00  0.00    +0.062 N 
ATOM     11  O   UNL     1     -37.901   4.318   9.519  1.00  0.00    -0.258 OA
ATOM     12  O   UNL     1     -37.153   6.286   8.899  1.00  0.00    -0.258 OA
ENDBRANCH   8  10
ENDBRANCH   2   4
BRANCH   3  13
ATOM     13  N   UNL     1     -31.179   7.397   7.336  1.00  0.00    -0.155 NA
ATOM     14  C   UNL     1     -31.286   8.695   7.313  1.00  0.00    +0.067 C 
ATOM     15  C   UNL     1     -32.546   9.432   7.722  1.00  0.00    +0.069 C 
BRANCH  14  16
ATOM     16  C   UNL     1     -30.105   9.495   6.873  1.00  0.00    +0.004 A 
ATOM     17  C   UNL     1     -28.849   8.903   6.699  1.00  0.00    +0.095 A 
ATOM     18  C   UNL     1     -30.274  10.861   6.604  1.00  0.00    +0.010 A 
ATOM     19  C   UNL     1     -27.772   9.693   6.273  1.00  0.00    +0.270 A 
ATOM     20  C   UNL     1     -29.195  11.642   6.182  1.00  0.00    +0.008 A 
ATOM     21  C   UNL     1     -27.938  11.061   6.017  1.00  0.00    +0.085 A 
BRANCH  19  22
ATOM     22  N   UNL     1     -26.451   9.077   6.091  1.00  0.00    +0.062 N 
ATOM     23  O   UNL     1     -25.832   8.731   7.107  1.00  0.00    -0.258 OA
ATOM     24  O   UNL     1     -26.031   8.944   4.933  1.00  0.00    -0.258 OA
ENDBRANCH  19  22
ENDBRANCH  14  16
ENDBRANCH   3  13
TORSDOF 5
ENDMDL
MODEL 8
REMARK VINA RESULT:    -8.892      6.147      9.264
REMARK INTER + INTRA:         -12.168
REMARK INTER:                 -11.580
REMARK INTRA:                  -0.588
REMARK UNBOUND:                -0.677
REMARK SMILES CC(=NN=C(C)c1cccc([N+](=O)[O-])c1)c1cccc([N+](=O)[O-])c1
REMARK SMILES IDX 1 1 2 2 3 3 16 4 17 5 24 6 18 7 20 8 19 9 21 10 22 11 23 12
REMARK SMILES IDX 4 13 5 14 6 15 7 16 15 17 8 18 11 19 9 20 10 21 12 22 13 23
REMARK SMILES IDX 14 24
REMARK H PARENT
ROOT
ATOM      1  C   UNL     1     -32.165   8.251   5.848  1.00  0.00    +0.069 C 
ATOM      2  C   UNL     1     -31.231   7.860   6.976  1.00  0.00    +0.067 C 
ATOM      3  N   UNL     1     -31.572   7.055   7.941  1.00  0.00    -0.155 NA
ENDROOT
BRANCH   2   4
ATOM      4  C   UNL     1     -29.853   8.434   6.989  1.00  0.00    +0.004 A 
ATOM      5  C   UNL     1     -28.825   7.719   7.622  1.00  0.00    +0.010 A 
ATOM      6  C   UNL     1     -29.578   9.679   6.412  1.00  0.00    +0.095 A 
ATOM      7  C   UNL     1     -27.526   8.228   7.663  1.00  0.00    +0.008 A 
ATOM      8  C   UNL     1     -28.271  10.184   6.459  1.00  0.00    +0.270 A 
ATOM      9  C   UNL     1     -27.241   9.462   7.080  1.00  0.00    +0.085 A 
BRANCH   8  10
ATOM     10  N   UNL     1     -27.976  11.488   5.852  1.00  0.00    +0.062 N 
ATOM     11  O   UNL     1     -28.899  12.311   5.774  1.00  0.00    -0.258 OA
ATOM     12  O   UNL     1     -26.819  11.689   5.457  1.00  0.00    -0.258 OA
ENDBRANCH   8  10
ENDBRANCH   2   4
BRANCH   3  13
ATOM     13  N   UNL     1     -32.878   6.595   7.855  1.00  0.00    -0.155 NA
ATOM     14  C   UNL     1     -33.123   5.556   8.600  1.00  0.00    +0.067 C 
ATOM     15  C   UNL     1     -32.076   4.892   9.472  1.00  0.00    +0.069 C 
BRANCH  14  16
ATOM     16  C   UNL     1     -34.508   4.997   8.602  1.00  0.00    +0.004 A 
ATOM     17  C   UNL     1     -35.576   5.704   9.165  1.00  0.00    +0.095 A 
ATOM     18  C   UNL     1     -34.737   3.751   8.001  1.00  0.00    +0.010 A 
ATOM     19  C   UNL     1     -36.861   5.144   9.134  1.00  0.00    +0.270 A 
ATOM     20  C   UNL     1     -36.021   3.200   7.974  1.00  0.00    +0.008 A 
ATOM     21  C   UNL     1     -37.088   3.893   8.544  1.00  0.00    +0.085 A 
BRANCH  19  22
ATOM     22  N   UNL     1     -37.986   5.881   9.725  1.00  0.00    +0.062 N 
ATOM     23  O   UNL     1     -38.675   6.581   8.970  1.00  0.00    -0.258 OA
ATOM     24  O   UNL     1     -38.177   5.762  10.944  1.00  0.00    -0.258 OA
ENDBRANCH  19  22
ENDBRANCH  14  16
ENDBRANCH   3  13
TORSDOF 5
ENDMDL
MODEL 9
REMARK VINA RESULT:    -8.571      6.285      9.184
REMARK INTER + INTRA:         -11.753
REMARK INTER:                 -11.110
REMARK INTRA:                  -0.643
REMARK UNBOUND:                -0.677
REMARK SMILES CC(=NN=C(C)c1cccc([N+](=O)[O-])c1)c1cccc([N+](=O)[O-])c1
REMARK SMILES IDX 1 1 2 2 3 3 16 4 17 5 24 6 18 7 20 8 19 9 21 10 22 11 23 12
REMARK SMILES IDX 4 13 5 14 6 15 7 16 15 17 8 18 11 19 9 20 10 21 12 22 13 23
REMARK SMILES IDX 14 24
REMARK H PARENT
ROOT
ATOM      1  C   UNL     1     -32.366   7.622   5.511  1.00  0.00    +0.069 C 
ATOM      2  C   UNL     1     -31.665   7.966   6.811  1.00  0.00    +0.067 C 
ATOM      3  N   UNL     1     -32.047   7.512   7.971  1.00  0.00    -0.155 NA
ENDROOT
BRANCH   2   4
ATOM      4  C   UNL     1     -30.486   8.879   6.762  1.00  0.00    +0.004 A 
ATOM      5  C   UNL     1     -30.702  10.261   6.651  1.00  0.00    +0.010 A 
ATOM      6  C   UNL     1     -29.178   8.382   6.793  1.00  0.00    +0.095 A 
ATOM      7  C   UNL     1     -29.624  11.147   6.593  1.00  0.00    +0.008 A 
ATOM      8  C   UNL     1     -28.101   9.278   6.734  1.00  0.00    +0.270 A 
ATOM      9  C   UNL     1     -28.318  10.660   6.636  1.00  0.00    +0.085 A 
BRANCH   8  10
ATOM     10  N   UNL     1     -26.727   8.762   6.770  1.00  0.00    +0.062 N 
ATOM     11  O   UNL     1     -25.866   9.451   7.336  1.00  0.00    -0.258 OA
ATOM     12  O   UNL     1     -26.511   7.667   6.235  1.00  0.00    -0.258 OA
ENDBRANCH   8  10
ENDBRANCH   2   4
BRANCH   3  13
ATOM     13  N   UNL     1     -33.165   6.695   7.915  1.00  0.00    -0.155 NA
ATOM     14  C   UNL     1     -33.079   5.630   8.659  1.00  0.00    +0.067 C 
ATOM     15  C   UNL     1     -31.863   5.298   9.500  1.00  0.00    +0.069 C 
BRANCH  14  16
ATOM     16  C   UNL     1     -34.244   4.695   8.694  1.00  0.00    +0.004 A 
ATOM     17  C   UNL     1     -35.502   5.117   9.135  1.00  0.00    +0.095 A 
ATOM     18  C   UNL     1     -34.068   3.377   8.247  1.00  0.00    +0.010 A 
ATOM     19  C   UNL     1     -36.568   4.205   9.138  1.00  0.00    +0.270 A 
ATOM     20  C   UNL     1     -35.135   2.475   8.255  1.00  0.00    +0.008 A 
ATOM     21  C   UNL     1     -36.389   2.885   8.704  1.00  0.00    +0.085 A 
BRANCH  19  22
ATOM     22  N   UNL     1     -37.892   4.642   9.602  1.00  0.00    +0.062 N 
ATOM     23  O   UNL     1     -38.308   4.180  10.673  1.00  0.00    -0.258 OA
ATOM     24  O   UNL     1     -38.516   5.444   8.892  1.00  0.00    -0.258 OA
ENDBRANCH  19  22
ENDBRANCH  14  16
ENDBRANCH   3  13
TORSDOF 5
ENDMDL
