MODEL 1
REMARK VINA RESULT:   -10.167      0.000      0.000
REMARK INTER + INTRA:         -13.068
REMARK INTER:                 -12.545
REMARK INTRA:                  -0.523
REMARK UNBOUND:                -0.523
REMARK SMILES CCc1nc(Nc2ccccc2Cl)c2cnn(-c3ccccc3)c2n1
REMARK SMILES IDX 3 1 4 2 5 3 14 4 15 5 16 6 17 7 24 8 25 9 2 10 1 11 6 12
REMARK SMILES IDX 7 14 12 15 8 16 11 17 9 18 10 19 13 20 18 21 19 22 23 23
REMARK SMILES IDX 20 24 22 25 21 26
REMARK H PARENT 6 13
ROOT
ATOM      1  C   UNL     1     -28.520   7.035   8.090  1.00  0.00    +0.133 A 
ATOM      2  N   UNL     1     -29.691   6.473   8.460  1.00  0.00    -0.215 NA
ATOM      3  C   UNL     1     -30.861   7.113   8.224  1.00  0.00    +0.145 A 
ATOM      4  C   UNL     1     -30.784   8.361   7.584  1.00  0.00    +0.082 A 
ATOM      5  C   UNL     1     -31.680   9.351   7.150  1.00  0.00    +0.150 A 
ATOM      6  N   UNL     1     -31.076  10.387   6.575  1.00  0.00    -0.174 NA
ATOM      7  N   UNL     1     -29.741  10.084   6.624  1.00  0.00    -0.215 N 
ATOM      8  C   UNL     1     -29.533   8.848   7.240  1.00  0.00    +0.168 A 
ATOM      9  N   UNL     1     -28.367   8.215   7.471  1.00  0.00    -0.213 NA
ENDROOT
BRANCH   1  10
ATOM     10  C   UNL     1     -27.272   6.242   8.370  1.00  0.00    +0.074 C 
ATOM     11  C   UNL     1     -26.183   6.556   7.357  1.00  0.00    +0.012 C 
ENDBRANCH   1  10
BRANCH   3  12
ATOM     12  N   UNL     1     -32.093   6.565   8.598  1.00  0.00    -0.338 N 
ATOM     13  H   UNL     1     -32.411   6.836   9.521  1.00  0.00    +0.168 HD
BRANCH  12  14
ATOM     14  C   UNL     1     -33.002   5.696   7.956  1.00  0.00    +0.058 A 
ATOM     15  C   UNL     1     -33.612   4.660   8.700  1.00  0.00    +0.064 A 
ATOM     16  C   UNL     1     -33.344   5.798   6.603  1.00  0.00    +0.027 A 
ATOM     17  C   UNL     1     -34.518   3.770   8.115  1.00  0.00    +0.023 A 
ATOM     18  C   UNL     1     -34.252   4.909   6.013  1.00  0.00    +0.002 A 
ATOM     19  C   UNL     1     -34.839   3.897   6.767  1.00  0.00    +0.002 A 
ATOM     20 Cl   UNL     1     -33.248   4.458  10.384  1.00  0.00    -0.082 Cl
ENDBRANCH  12  14
ENDBRANCH   3  12
BRANCH   7  21
ATOM     21  C   UNL     1     -28.789  11.002   6.081  1.00  0.00    +0.067 A 
ATOM     22  C   UNL     1     -27.463  10.633   5.823  1.00  0.00    +0.028 A 
ATOM     23  C   UNL     1     -29.195  12.318   5.796  1.00  0.00    +0.028 A 
ATOM     24  C   UNL     1     -26.564  11.563   5.289  1.00  0.00    +0.002 A 
ATOM     25  C   UNL     1     -28.292  13.241   5.264  1.00  0.00    +0.002 A 
ATOM     26  C   UNL     1     -26.976  12.864   5.011  1.00  0.00    +0.000 A 
ENDBRANCH   7  21
TORSDOF 4
ENDMDL
MODEL 2
REMARK VINA RESULT:   -10.090      5.376      7.302
REMARK INTER + INTRA:         -12.973
REMARK INTER:                 -12.352
REMARK INTRA:                  -0.620
REMARK UNBOUND:                -0.523
REMARK SMILES CCc1nc(Nc2ccccc2Cl)c2cnn(-c3ccccc3)c2n1
REMARK SMILES IDX 3 1 4 2 5 3 14 4 15 5 16 6 17 7 24 8 25 9 2 10 1 11 6 12
REMARK SMILES IDX 7 14 12 15 8 16 11 17 9 18 10 19 13 20 18 21 19 22 23 23
REMARK SMILES IDX 20 24 22 25 21 26
REMARK H PARENT 6 13
ROOT
ATOM      1  C   UNL     1     -24.376   2.523  10.795  1.00  0.00    +0.133 A 
ATOM      2  N   UNL     1     -25.112   1.560  11.388  1.00  0.00    -0.215 NA
ATOM      3  C   UNL     1     -26.458   1.534  11.232  1.00  0.00    +0.145 A 
ATOM      4  C   UNL     1     -27.023   2.541  10.431  1.00  0.00    +0.082 A 
ATOM      5  C   UNL     1     -28.306   2.911   9.998  1.00  0.00    +0.150 A 
ATOM      6  N   UNL     1     -28.305   3.988   9.218  1.00  0.00    -0.174 NA
ATOM      7  N   UNL     1     -26.986   4.349   9.126  1.00  0.00    -0.215 N 
ATOM      8  C   UNL     1     -26.178   3.480   9.862  1.00  0.00    +0.168 A 
ATOM      9  N   UNL     1     -24.840   3.510  10.013  1.00  0.00    -0.213 NA
ENDROOT
BRANCH   1  10
ATOM     10  C   UNL     1     -22.886   2.461  11.004  1.00  0.00    +0.074 C 
ATOM     11  C   UNL     1     -22.271   1.303  10.235  1.00  0.00    +0.012 C 
ENDBRANCH   1  10
BRANCH   3  12
ATOM     12  N   UNL     1     -27.254   0.556  11.835  1.00  0.00    -0.338 N 
ATOM     13  H   UNL     1     -26.947  -0.396  11.671  1.00  0.00    +0.168 HD
BRANCH  12  14
ATOM     14  C   UNL     1     -28.417   0.609  12.635  1.00  0.00    +0.058 A 
ATOM     15  C   UNL     1     -29.643   0.144  12.106  1.00  0.00    +0.064 A 
ATOM     16  C   UNL     1     -28.432   1.104  13.943  1.00  0.00    +0.027 A 
ATOM     17  C   UNL     1     -30.825   0.175  12.852  1.00  0.00    +0.023 A 
ATOM     18  C   UNL     1     -29.614   1.136  14.695  1.00  0.00    +0.002 A 
ATOM     19  C   UNL     1     -30.808   0.672  14.151  1.00  0.00    +0.002 A 
ATOM     20 Cl   UNL     1     -29.718  -0.487  10.492  1.00  0.00    -0.082 Cl
ENDBRANCH  12  14
ENDBRANCH   3  12
BRANCH   7  21
ATOM     21  C   UNL     1     -26.621   5.490   8.345  1.00  0.00    +0.067 A 
ATOM     22  C   UNL     1     -25.375   5.592   7.714  1.00  0.00    +0.028 A 
ATOM     23  C   UNL     1     -27.541   6.545   8.205  1.00  0.00    +0.028 A 
ATOM     24  C   UNL     1     -25.058   6.727   6.958  1.00  0.00    +0.002 A 
ATOM     25  C   UNL     1     -27.218   7.675   7.450  1.00  0.00    +0.002 A 
ATOM     26  C   UNL     1     -25.977   7.766   6.827  1.00  0.00    +0.000 A 
ENDBRANCH   7  21
TORSDOF 4
ENDMDL
MODEL 3
REMARK VINA RESULT:    -9.418      2.989      5.248
REMARK INTER + INTRA:         -12.144
REMARK INTER:                 -11.894
REMARK INTRA:                  -0.251
REMARK UNBOUND:                -0.523
REMARK SMILES CCc1nc(Nc2ccccc2Cl)c2cnn(-c3ccccc3)c2n1
REMARK SMILES IDX 3 1 4 2 5 3 14 4 15 5 16 6 17 7 24 8 25 9 2 10 1 11 6 12
REMARK SMILES IDX 7 14 12 15 8 16 11 17 9 18 10 19 13 20 18 21 19 22 23 23
REMARK SMILES IDX 20 24 22 25 21 26
REMARK H PARENT 6 13
ROOT
ATOM      1  C   UNL     1     -29.782   6.948   8.130  1.00  0.00    +0.133 A 
ATOM      2  N   UNL     1     -29.025   5.892   8.497  1.00  0.00    -0.215 NA
ATOM      3  C   UNL     1     -27.686   5.907   8.293  1.00  0.00    +0.145 A 
ATOM      4  C   UNL     1     -27.148   7.060   7.697  1.00  0.00    +0.082 A 
ATOM      5  C   UNL     1     -25.881   7.518   7.305  1.00  0.00    +0.150 A 
ATOM      6  N   UNL     1     -25.907   8.734   6.766  1.00  0.00    -0.174 NA
ATOM      7  N   UNL     1     -27.227   9.100   6.799  1.00  0.00    -0.215 N 
ATOM      8  C   UNL     1     -28.010   8.092   7.363  1.00  0.00    +0.168 A 
ATOM      9  N   UNL     1     -29.343   8.082   7.565  1.00  0.00    -0.213 NA
ENDROOT
BRANCH   1  10
ATOM     10  C   UNL     1     -31.257   6.854   8.416  1.00  0.00    +0.074 C 
ATOM     11  C   UNL     1     -31.639   5.461   8.887  1.00  0.00    +0.012 C 
ENDBRANCH   1  10
BRANCH   3  12
ATOM     12  N   UNL     1     -26.870   4.830   8.655  1.00  0.00    -0.338 N 
ATOM     13  H   UNL     1     -26.085   4.671   8.035  1.00  0.00    +0.168 HD
BRANCH  12  14
ATOM     14  C   UNL     1     -26.909   3.897   9.714  1.00  0.00    +0.058 A 
ATOM     15  C   UNL     1     -25.772   3.739  10.539  1.00  0.00    +0.064 A 
ATOM     16  C   UNL     1     -28.024   3.103  10.003  1.00  0.00    +0.027 A 
ATOM     17  C   UNL     1     -25.755   2.829  11.600  1.00  0.00    +0.023 A 
ATOM     18  C   UNL     1     -28.011   2.191  11.067  1.00  0.00    +0.002 A 
ATOM     19  C   UNL     1     -26.879   2.053  11.864  1.00  0.00    +0.002 A 
ATOM     20 Cl   UNL     1     -24.345   4.682  10.255  1.00  0.00    -0.082 Cl
ENDBRANCH  12  14
ENDBRANCH   3  12
BRANCH   7  21
ATOM     21  C   UNL     1     -27.616  10.378   6.288  1.00  0.00    +0.067 A 
ATOM     22  C   UNL     1     -26.749  11.169   5.525  1.00  0.00    +0.028 A 
ATOM     23  C   UNL     1     -28.910  10.856   6.560  1.00  0.00    +0.028 A 
ATOM     24  C   UNL     1     -27.171  12.414   5.044  1.00  0.00    +0.002 A 
ATOM     25  C   UNL     1     -29.325  12.100   6.077  1.00  0.00    +0.002 A 
ATOM     26  C   UNL     1     -28.454  12.879   5.319  1.00  0.00    +0.000 A 
ENDBRANCH   7  21
TORSDOF 4
ENDMDL
MODEL 4
REMARK VINA RESULT:    -9.405      3.564      5.867
REMARK INTER + INTRA:         -12.127
REMARK INTER:                 -11.610
REMARK INTRA:                  -0.517
REMARK UNBOUND:                -0.523
REMARK SMILES CCc1nc(Nc2ccccc2Cl)c2cnn(-c3ccccc3)c2n1
REMARK SMILES IDX 3 1 4 2 5 3 14 4 15 5 16 6 17 7 24 8 25 9 2 10 1 11 6 12
REMARK SMILES IDX 7 14 12 15 8 16 11 17 9 18 10 19 13 20 18 21 19 22 23 23
REMARK SMILES IDX 20 24 22 25 21 26
REMARK H PARENT 6 13
ROOT
ATOM      1  C   UNL     1     -29.248   5.413   8.707  1.00  0.00    +0.133 A 
ATOM      2  N   UNL     1     -28.382   4.429   9.027  1.00  0.00    -0.215 NA
ATOM      3  C   UNL     1     -27.056   4.584   8.798  1.00  0.00    +0.145 A 
ATOM      4  C   UNL     1     -26.648   5.800   8.227  1.00  0.00    +0.082 A 
ATOM      5  C   UNL     1     -25.442   6.394   7.824  1.00  0.00    +0.150 A 
ATOM      6  N   UNL     1     -25.601   7.615   7.322  1.00  0.00    -0.174 NA
ATOM      7  N   UNL     1     -26.949   7.847   7.392  1.00  0.00    -0.215 N 
ATOM      8  C   UNL     1     -27.616   6.750   7.940  1.00  0.00    +0.168 A 
ATOM      9  N   UNL     1     -28.936   6.601   8.167  1.00  0.00    -0.213 NA
ENDROOT
BRANCH   1  10
ATOM     10  C   UNL     1     -30.700   5.165   9.018  1.00  0.00    +0.074 C 
ATOM     11  C   UNL     1     -31.582   6.257   8.436  1.00  0.00    +0.012 C 
ENDBRANCH   1  10
BRANCH   3  12
ATOM     12  N   UNL     1     -26.129   3.584   9.112  1.00  0.00    -0.338 N 
ATOM     13  H   UNL     1     -25.198   3.744   8.746  1.00  0.00    +0.168 HD
BRANCH  12  14
ATOM     14  C   UNL     1     -26.214   2.376   9.838  1.00  0.00    +0.058 A 
ATOM     15  C   UNL     1     -26.157   2.411  11.250  1.00  0.00    +0.064 A 
ATOM     16  C   UNL     1     -26.354   1.121   9.235  1.00  0.00    +0.027 A 
ATOM     17  C   UNL     1     -26.235   1.246  12.018  1.00  0.00    +0.023 A 
ATOM     18  C   UNL     1     -26.433  -0.050  10.002  1.00  0.00    +0.002 A 
ATOM     19  C   UNL     1     -26.374   0.012  11.391  1.00  0.00    +0.002 A 
ATOM     20 Cl   UNL     1     -25.986   3.923  12.083  1.00  0.00    -0.082 Cl
ENDBRANCH  12  14
ENDBRANCH   3  12
BRANCH   7  21
ATOM     21  C   UNL     1     -27.475   9.093   6.927  1.00  0.00    +0.067 A 
ATOM     22  C   UNL     1     -28.715   9.584   7.356  1.00  0.00    +0.028 A 
ATOM     23  C   UNL     1     -26.727   9.850   6.009  1.00  0.00    +0.028 A 
ATOM     24  C   UNL     1     -29.192  10.809   6.876  1.00  0.00    +0.002 A 
ATOM     25  C   UNL     1     -27.209  11.072   5.534  1.00  0.00    +0.002 A 
ATOM     26  C   UNL     1     -28.442  11.551   5.967  1.00  0.00    +0.000 A 
ENDBRANCH   7  21
TORSDOF 4
ENDMDL
MODEL 5
REMARK VINA RESULT:    -9.207      4.846      8.377
REMARK INTER + INTRA:         -11.883
REMARK INTER:                 -11.013
REMARK INTRA:                  -0.870
REMARK UNBOUND:                -0.523
REMARK SMILES CCc1nc(Nc2ccccc2Cl)c2cnn(-c3ccccc3)c2n1
REMARK SMILES IDX 3 1 4 2 5 3 14 4 15 5 16 6 17 7 24 8 25 9 2 10 1 11 6 12
REMARK SMILES IDX 7 14 12 15 8 16 11 17 9 18 10 19 13 20 18 21 19 22 23 23
REMARK SMILES IDX 20 24 22 25 21 26
REMARK H PARENT 6 13
ROOT
ATOM      1  C   UNL     1     -32.025   4.547   9.098  1.00  0.00    +0.133 A 
ATOM      2  N   UNL     1     -33.351   4.543   8.843  1.00  0.00    -0.215 NA
ATOM      3  C   UNL     1     -34.089   3.431   9.076  1.00  0.00    +0.145 A 
ATOM      4  C   UNL     1     -33.410   2.315   9.590  1.00  0.00    +0.082 A 
ATOM      5  C   UNL     1     -33.730   1.003   9.974  1.00  0.00    +0.150 A 
ATOM      6  N   UNL     1     -32.681   0.316  10.417  1.00  0.00    -0.174 NA
ATOM      7  N   UNL     1     -31.630   1.190  10.329  1.00  0.00    -0.215 N 
ATOM      8  C   UNL     1     -32.048   2.423   9.824  1.00  0.00    +0.168 A 
ATOM      9  N   UNL     1     -31.309   3.526   9.594  1.00  0.00    -0.213 NA
ENDROOT
BRANCH   1  10
ATOM     10  C   UNL     1     -31.289   5.832   8.832  1.00  0.00    +0.074 C 
ATOM     11  C   UNL     1     -32.039   6.699   7.834  1.00  0.00    +0.012 C 
ENDBRANCH   1  10
BRANCH   3  12
ATOM     12  N   UNL     1     -35.464   3.388   8.819  1.00  0.00    -0.338 N 
ATOM     13  H   UNL     1     -35.739   2.709   8.118  1.00  0.00    +0.168 HD
BRANCH  12  14
ATOM     14  C   UNL     1     -36.569   4.102   9.330  1.00  0.00    +0.058 A 
ATOM     15  C   UNL     1     -37.443   3.466  10.241  1.00  0.00    +0.064 A 
ATOM     16  C   UNL     1     -36.859   5.427   8.985  1.00  0.00    +0.027 A 
ATOM     17  C   UNL     1     -38.553   4.125  10.777  1.00  0.00    +0.023 A 
ATOM     18  C   UNL     1     -37.971   6.091   9.522  1.00  0.00    +0.002 A 
ATOM     19  C   UNL     1     -38.816   5.442  10.416  1.00  0.00    +0.002 A 
ATOM     20 Cl   UNL     1     -37.160   1.825  10.726  1.00  0.00    -0.082 Cl
ENDBRANCH  12  14
ENDBRANCH   3  12
BRANCH   7  21
ATOM     21  C   UNL     1     -30.326   0.767  10.735  1.00  0.00    +0.067 A 
ATOM     22  C   UNL     1     -29.686   1.304  11.859  1.00  0.00    +0.028 A 
ATOM     23  C   UNL     1     -29.663  -0.218   9.982  1.00  0.00    +0.028 A 
ATOM     24  C   UNL     1     -28.409   0.861  12.222  1.00  0.00    +0.002 A 
ATOM     25  C   UNL     1     -28.388  -0.655  10.349  1.00  0.00    +0.002 A 
ATOM     26  C   UNL     1     -27.761  -0.115  11.469  1.00  0.00    +0.000 A 
ENDBRANCH   7  21
TORSDOF 4
ENDMDL
MODEL 6
REMARK VINA RESULT:    -8.920      2.262      3.809
REMARK INTER + INTRA:         -11.529
REMARK INTER:                 -11.343
REMARK INTRA:                  -0.186
REMARK UNBOUND:                -0.523
REMARK SMILES CCc1nc(Nc2ccccc2Cl)c2cnn(-c3ccccc3)c2n1
REMARK SMILES IDX 3 1 4 2 5 3 14 4 15 5 16 6 17 7 24 8 25 9 2 10 1 11 6 12
REMARK SMILES IDX 7 14 12 15 8 16 11 17 9 18 10 19 13 20 18 21 19 22 23 23
REMARK SMILES IDX 20 24 22 25 21 26
REMARK H PARENT 6 13
ROOT
ATOM      1  C   UNL     1     -32.192   7.161   7.352  1.00  0.00    +0.133 A 
ATOM      2  N   UNL     1     -31.906   6.030   8.029  1.00  0.00    -0.215 NA
ATOM      3  C   UNL     1     -30.648   5.800   8.478  1.00  0.00    +0.145 A 
ATOM      4  C   UNL     1     -29.688   6.788   8.206  1.00  0.00    +0.082 A 
ATOM      5  C   UNL     1     -28.322   6.989   8.455  1.00  0.00    +0.150 A 
ATOM      6  N   UNL     1     -27.864   8.140   7.968  1.00  0.00    -0.174 NA
ATOM      7  N   UNL     1     -28.954   8.725   7.378  1.00  0.00    -0.215 N 
ATOM      8  C   UNL     1     -30.085   7.917   7.507  1.00  0.00    +0.168 A 
ATOM      9  N   UNL     1     -31.334   8.151   7.060  1.00  0.00    -0.213 NA
ENDROOT
BRANCH   1  10
ATOM     10  C   UNL     1     -33.620   7.344   6.912  1.00  0.00    +0.074 C 
ATOM     11  C   UNL     1     -34.017   6.298   5.883  1.00  0.00    +0.012 C 
ENDBRANCH   1  10
BRANCH   3  12
ATOM     12  N   UNL     1     -30.313   4.637   9.178  1.00  0.00    -0.338 N 
ATOM     13  H   UNL     1     -29.354   4.604   9.504  1.00  0.00    +0.168 HD
BRANCH  12  14
ATOM     14  C   UNL     1     -31.035   3.477   9.533  1.00  0.00    +0.058 A 
ATOM     15  C   UNL     1     -30.343   2.369  10.073  1.00  0.00    +0.064 A 
ATOM     16  C   UNL     1     -32.420   3.352   9.379  1.00  0.00    +0.027 A 
ATOM     17  C   UNL     1     -31.008   1.194  10.440  1.00  0.00    +0.023 A 
ATOM     18  C   UNL     1     -33.090   2.177   9.746  1.00  0.00    +0.002 A 
ATOM     19  C   UNL     1     -32.386   1.100  10.275  1.00  0.00    +0.002 A 
ATOM     20 Cl   UNL     1     -28.625   2.434  10.300  1.00  0.00    -0.082 Cl
ENDBRANCH  12  14
ENDBRANCH   3  12
BRANCH   7  21
ATOM     21  C   UNL     1     -28.812  10.000   6.746  1.00  0.00    +0.067 A 
ATOM     22  C   UNL     1     -29.799  10.990   6.840  1.00  0.00    +0.028 A 
ATOM     23  C   UNL     1     -27.648  10.271   6.006  1.00  0.00    +0.028 A 
ATOM     24  C   UNL     1     -29.620  12.225   6.206  1.00  0.00    +0.002 A 
ATOM     25  C   UNL     1     -27.476  11.505   5.376  1.00  0.00    +0.002 A 
ATOM     26  C   UNL     1     -28.463  12.482   5.475  1.00  0.00    +0.000 A 
ENDBRANCH   7  21
TORSDOF 4
ENDMDL
MODEL 7
REMARK VINA RESULT:    -8.808      5.710      8.939
REMARK INTER + INTRA:         -11.391
REMARK INTER:                 -10.647
REMARK INTRA:                  -0.743
REMARK UNBOUND:                -0.523
REMARK SMILES CCc1nc(Nc2ccccc2Cl)c2cnn(-c3ccccc3)c2n1
REMARK SMILES IDX 3 1 4 2 5 3 14 4 15 5 16 6 17 7 24 8 25 9 2 10 1 11 6 12
REMARK SMILES IDX 7 14 12 15 8 16 11 17 9 18 10 19 13 20 18 21 19 22 23 23
REMARK SMILES IDX 20 24 22 25 21 26
REMARK H PARENT 6 13
ROOT
ATOM      1  C   UNL     1     -32.516   1.028  10.512  1.00  0.00    +0.133 A 
ATOM      2  N   UNL     1     -31.206   1.252  10.278  1.00  0.00    -0.215 NA
ATOM      3  C   UNL     1     -30.787   2.464   9.841  1.00  0.00    +0.145 A 
ATOM      4  C   UNL     1     -31.772   3.447   9.656  1.00  0.00    +0.082 A 
ATOM      5  C   UNL     1     -31.823   4.786   9.238  1.00  0.00    +0.150 A 
ATOM      6  N   UNL     1     -33.054   5.289   9.238  1.00  0.00    -0.174 NA
ATOM      7  N   UNL     1     -33.850   4.260   9.668  1.00  0.00    -0.215 N 
ATOM      8  C   UNL     1     -33.090   3.118   9.930  1.00  0.00    +0.168 A 
ATOM      9  N   UNL     1     -33.512   1.915  10.366  1.00  0.00    -0.213 NA
ENDROOT
BRANCH   1  10
ATOM     10  C   UNL     1     -32.889  -0.340  11.018  1.00  0.00    +0.074 C 
ATOM     11  C   UNL     1     -31.742  -1.322  10.843  1.00  0.00    +0.012 C 
ENDBRANCH   1  10
BRANCH   3  12
ATOM     12  N   UNL     1     -29.438   2.732   9.583  1.00  0.00    -0.338 N 
ATOM     13  H   UNL     1     -29.226   2.921   8.610  1.00  0.00    +0.168 HD
BRANCH  12  14
ATOM     14  C   UNL     1     -28.288   2.792  10.400  1.00  0.00    +0.058 A 
ATOM     15  C   UNL     1     -27.190   3.583   9.992  1.00  0.00    +0.064 A 
ATOM     16  C   UNL     1     -28.164   2.103  11.611  1.00  0.00    +0.027 A 
ATOM     17  C   UNL     1     -26.026   3.678  10.761  1.00  0.00    +0.023 A 
ATOM     18  C   UNL     1     -27.000   2.195  12.385  1.00  0.00    +0.002 A 
ATOM     19  C   UNL     1     -25.932   2.981  11.962  1.00  0.00    +0.002 A 
ATOM     20 Cl   UNL     1     -27.255   4.473   8.505  1.00  0.00    -0.082 Cl
ENDBRANCH  12  14
ENDBRANCH   3  12
BRANCH   7  21
ATOM     21  C   UNL     1     -35.260   4.462   9.788  1.00  0.00    +0.067 A 
ATOM     22  C   UNL     1     -36.156   4.070   8.785  1.00  0.00    +0.028 A 
ATOM     23  C   UNL     1     -35.766   5.075  10.948  1.00  0.00    +0.028 A 
ATOM     24  C   UNL     1     -37.530   4.287   8.943  1.00  0.00    +0.002 A 
ATOM     25  C   UNL     1     -37.138   5.288  11.100  1.00  0.00    +0.002 A 
ATOM     26  C   UNL     1     -38.020   4.894  10.097  1.00  0.00    +0.000 A 
ENDBRANCH   7  21
TORSDOF 4
ENDMDL
MODEL 8
REMARK VINA RESULT:    -8.620      4.059      7.139
REMARK INTER + INTRA:         -11.159
REMARK INTER:                 -10.524
REMARK INTRA:                  -0.636
REMARK UNBOUND:                -0.523
REMARK SMILES CCc1nc(Nc2ccccc2Cl)c2cnn(-c3ccccc3)c2n1
REMARK SMILES IDX 3 1 4 2 5 3 14 4 15 5 16 6 17 7 24 8 25 9 2 10 1 11 6 12
REMARK SMILES IDX 7 14 12 15 8 16 11 17 9 18 10 19 13 20 18 21 19 22 23 23
REMARK SMILES IDX 20 24 22 25 21 26
REMARK H PARENT 6 13
ROOT
ATOM      1  C   UNL     1     -35.363   4.294  10.430  1.00  0.00    +0.133 A 
ATOM      2  N   UNL     1     -34.995   3.230  11.174  1.00  0.00    -0.215 NA
ATOM      3  C   UNL     1     -33.729   2.752  11.107  1.00  0.00    +0.145 A 
ATOM      4  C   UNL     1     -32.846   3.418  10.241  1.00  0.00    +0.082 A 
ATOM      5  C   UNL     1     -31.503   3.298   9.852  1.00  0.00    +0.150 A 
ATOM      6  N   UNL     1     -31.130   4.218   8.966  1.00  0.00    -0.174 NA
ATOM      7  N   UNL     1     -32.253   4.975   8.758  1.00  0.00    -0.215 N 
ATOM      8  C   UNL     1     -33.320   4.505   9.525  1.00  0.00    +0.168 A 
ATOM      9  N   UNL     1     -34.578   4.985   9.590  1.00  0.00    -0.213 NA
ENDROOT
BRANCH   1  10
ATOM     10  C   UNL     1     -36.782   4.771  10.587  1.00  0.00    +0.074 C 
ATOM     11  C   UNL     1     -36.847   6.038  11.425  1.00  0.00    +0.012 C 
ENDBRANCH   1  10
BRANCH   3  12
ATOM     12  N   UNL     1     -33.313   1.648  11.858  1.00  0.00    -0.338 N 
ATOM     13  H   UNL     1     -33.742   1.578  12.775  1.00  0.00    +0.168 HD
BRANCH  12  14
ATOM     14  C   UNL     1     -32.407   0.594  11.613  1.00  0.00    +0.058 A 
ATOM     15  C   UNL     1     -31.432   0.279  12.587  1.00  0.00    +0.064 A 
ATOM     16  C   UNL     1     -32.412  -0.172  10.443  1.00  0.00    +0.027 A 
ATOM     17  C   UNL     1     -30.508  -0.753  12.396  1.00  0.00    +0.023 A 
ATOM     18  C   UNL     1     -31.489  -1.208  10.248  1.00  0.00    +0.002 A 
ATOM     19  C   UNL     1     -30.538  -1.499  11.222  1.00  0.00    +0.002 A 
ATOM     20 Cl   UNL     1     -31.351   1.177  14.069  1.00  0.00    -0.082 Cl
ENDBRANCH  12  14
ENDBRANCH   3  12
BRANCH   7  21
ATOM     21  C   UNL     1     -32.202   6.074   7.844  1.00  0.00    +0.067 A 
ATOM     22  C   UNL     1     -32.980   6.111   6.680  1.00  0.00    +0.028 A 
ATOM     23  C   UNL     1     -31.344   7.153   8.122  1.00  0.00    +0.028 A 
ATOM     24  C   UNL     1     -32.900   7.207   5.813  1.00  0.00    +0.002 A 
ATOM     25  C   UNL     1     -31.269   8.244   7.252  1.00  0.00    +0.002 A 
ATOM     26  C   UNL     1     -32.047   8.270   6.098  1.00  0.00    +0.000 A 
ENDBRANCH   7  21
TORSDOF 4
ENDMDL
MODEL 9
REMARK VINA RESULT:    -8.326      7.388     12.106
REMARK INTER + INTRA:         -10.796
REMARK INTER:                  -9.900
REMARK INTRA:                  -0.897
REMARK UNBOUND:                -0.523
REMARK SMILES CCc1nc(Nc2ccccc2Cl)c2cnn(-c3ccccc3)c2n1
REMARK SMILES IDX 3 1 4 2 5 3 14 4 15 5 16 6 17 7 24 8 25 9 2 10 1 11 6 12
REMARK SMILES IDX 7 14 12 15 8 16 11 17 9 18 10 19 13 20 18 21 19 22 23 23
REMARK SMILES IDX 20 24 22 25 21 26
REMARK H PARENT 6 13
ROOT
ATOM      1  C   UNL     1     -30.704   1.021  11.133  1.00  0.00    +0.133 A 
ATOM      2  N   UNL     1     -29.642   1.455  10.422  1.00  0.00    -0.215 NA
ATOM      3  C   UNL     1     -28.471   0.775  10.457  1.00  0.00    +0.145 A 
ATOM      4  C   UNL     1     -28.432  -0.381  11.253  1.00  0.00    +0.082 A 
ATOM      5  C   UNL     1     -27.491  -1.366  11.589  1.00  0.00    +0.150 A 
ATOM      6  N   UNL     1     -27.972  -2.290  12.417  1.00  0.00    -0.174 NA
ATOM      7  N   UNL     1     -29.270  -1.914  12.640  1.00  0.00    -0.215 N 
ATOM      8  C   UNL     1     -29.579  -0.746  11.940  1.00  0.00    +0.168 A 
ATOM      9  N   UNL     1     -30.746  -0.074  11.908  1.00  0.00    -0.213 NA
ENDROOT
BRANCH   1  10
ATOM     10  C   UNL     1     -31.971   1.824  11.017  1.00  0.00    +0.074 C 
ATOM     11  C   UNL     1     -32.051   2.533   9.675  1.00  0.00    +0.012 C 
ENDBRANCH   1  10
BRANCH   3  12
ATOM     12  N   UNL     1     -27.348   1.198   9.737  1.00  0.00    -0.338 N 
ATOM     13  H   UNL     1     -26.992   0.518   9.076  1.00  0.00    +0.168 HD
BRANCH  12  14
ATOM     14  C   UNL     1     -26.588   2.388   9.737  1.00  0.00    +0.058 A 
ATOM     15  C   UNL     1     -25.397   2.449  10.495  1.00  0.00    +0.064 A 
ATOM     16  C   UNL     1     -26.949   3.534   9.021  1.00  0.00    +0.027 A 
ATOM     17  C   UNL     1     -24.607   3.602  10.533  1.00  0.00    +0.023 A 
ATOM     18  C   UNL     1     -26.160   4.692   9.055  1.00  0.00    +0.002 A 
ATOM     19  C   UNL     1     -24.991   4.726   9.809  1.00  0.00    +0.002 A 
ATOM     20 Cl   UNL     1     -24.871   1.075  11.414  1.00  0.00    -0.082 Cl
ENDBRANCH  12  14
ENDBRANCH   3  12
BRANCH   7  21
ATOM     21  C   UNL     1     -30.095  -2.705  13.500  1.00  0.00    +0.067 A 
ATOM     22  C   UNL     1     -30.176  -2.466  14.878  1.00  0.00    +0.028 A 
ATOM     23  C   UNL     1     -30.848  -3.755  12.949  1.00  0.00    +0.028 A 
ATOM     24  C   UNL     1     -30.996  -3.263  15.685  1.00  0.00    +0.002 A 
ATOM     25  C   UNL     1     -31.665  -4.548  13.759  1.00  0.00    +0.002 A 
ATOM     26  C   UNL     1     -31.738  -4.302  15.128  1.00  0.00    +0.000 A 
ENDBRANCH   7  21
TORSDOF 4
ENDMDL
