MODEL 1
REMARK VINA RESULT:   -11.358      0.000      0.000
REMARK INTER + INTRA:         -11.690
REMARK INTER:                 -11.690
REMARK INTRA:                   0.000
REMARK UNBOUND:                 0.000
REMARK SMILES Oc1ccc2c(c1)c1ccccc1c1ncccc21
REMARK SMILES IDX 1 1 2 3 7 4 3 5 6 6 4 7 5 8 8 9 19 10 13 11 9 12 18 13 14 14
REMARK SMILES IDX 12 15 10 16 17 17 15 18 11 19 16 20
REMARK H PARENT 1 2
ROOT
ATOM      1  O   UNL     1     -33.104   9.259   7.689  1.00  0.00    -0.508 OA
ATOM      2  H   UNL     1     -33.452   9.784   6.951  1.00  0.00    +0.293 HD
ENDROOT
BRANCH   1   3
ATOM      3  C   UNL     1     -31.766   9.074   7.512  1.00  0.00    +0.116 A 
ATOM      4  C   UNL     1     -30.953  10.067   6.977  1.00  0.00    +0.055 A 
ATOM      5  C   UNL     1     -31.228   7.864   7.880  1.00  0.00    +0.047 A 
ATOM      6  C   UNL     1     -29.554   9.885   6.788  1.00  0.00    -0.006 A 
ATOM      7  C   UNL     1     -29.863   7.652   7.708  1.00  0.00    +0.013 A 
ATOM      8  C   UNL     1     -28.990   8.637   7.166  1.00  0.00    -0.008 A 
ATOM      9  C   UNL     1     -28.709  10.904   6.238  1.00  0.00    -0.008 A 
ATOM     10  C   UNL     1     -27.583   8.409   6.993  1.00  0.00    +0.009 A 
ATOM     11  C   UNL     1     -27.322  10.648   6.079  1.00  0.00    +0.009 A 
ATOM     12  C   UNL     1     -29.179  12.184   5.830  1.00  0.00    +0.009 A 
ATOM     13  C   UNL     1     -26.934   7.196   7.342  1.00  0.00    +0.012 A 
ATOM     14  C   UNL     1     -26.756   9.418   6.450  1.00  0.00    +0.079 A 
ATOM     15  C   UNL     1     -26.499  11.664   5.534  1.00  0.00    +0.011 A 
ATOM     16  C   UNL     1     -28.342  13.166   5.295  1.00  0.00    +0.001 A 
ATOM     17  C   UNL     1     -25.569   7.011   7.160  1.00  0.00    +0.021 A 
ATOM     18  N   UNL     1     -25.423   9.224   6.277  1.00  0.00    -0.256 NA
ATOM     19  C   UNL     1     -26.995  12.906   5.146  1.00  0.00    +0.001 A 
ATOM     20  C   UNL     1     -24.859   8.053   6.626  1.00  0.00    +0.112 A 
ENDBRANCH   1   3
TORSDOF 1
ENDMDL
MODEL 2
REMARK VINA RESULT:   -10.840      0.906      3.894
REMARK INTER + INTRA:         -11.157
REMARK INTER:                 -11.157
REMARK INTRA:                   0.000
REMARK UNBOUND:                 0.000
REMARK SMILES Oc1ccc2c(c1)c1ccccc1c1ncccc21
REMARK SMILES IDX 1 1 2 3 7 4 3 5 6 6 4 7 5 8 8 9 19 10 13 11 9 12 18 13 14 14
REMARK SMILES IDX 12 15 10 16 17 17 15 18 11 19 16 20
REMARK H PARENT 1 2
ROOT
ATOM      1  O   UNL     1     -32.116   6.989   8.386  1.00  0.00    -0.508 OA
ATOM      2  H   UNL     1     -32.553   7.359   9.170  1.00  0.00    +0.293 HD
ENDROOT
BRANCH   1   3
ATOM      3  C   UNL     1     -31.272   7.923   7.866  1.00  0.00    +0.116 A 
ATOM      4  C   UNL     1     -29.910   7.679   7.715  1.00  0.00    +0.055 A 
ATOM      5  C   UNL     1     -31.802   9.132   7.486  1.00  0.00    +0.047 A 
ATOM      6  C   UNL     1     -29.019   8.647   7.173  1.00  0.00    -0.006 A 
ATOM      7  C   UNL     1     -30.958  10.103   6.953  1.00  0.00    +0.013 A 
ATOM      8  C   UNL     1     -29.560   9.900   6.778  1.00  0.00    -0.008 A 
ATOM      9  C   UNL     1     -27.616   8.403   7.014  1.00  0.00    -0.008 A 
ATOM     10  C   UNL     1     -28.698  10.906   6.226  1.00  0.00    +0.009 A 
ATOM     11  C   UNL     1     -26.789   9.417   6.465  1.00  0.00    +0.009 A 
ATOM     12  C   UNL     1     -26.981   7.181   7.379  1.00  0.00    +0.009 A 
ATOM     13  C   UNL     1     -29.149  12.184   5.805  1.00  0.00    +0.012 A 
ATOM     14  C   UNL     1     -27.316  10.658   6.073  1.00  0.00    +0.079 A 
ATOM     15  C   UNL     1     -25.404   9.162   6.314  1.00  0.00    +0.011 A 
ATOM     16  C   UNL     1     -25.612   6.959   7.218  1.00  0.00    +0.001 A 
ATOM     17  C   UNL     1     -28.285  13.134   5.276  1.00  0.00    +0.021 A 
ATOM     18  N   UNL     1     -26.482  11.596   5.553  1.00  0.00    -0.256 NA
ATOM     19  C   UNL     1     -24.818   7.954   6.683  1.00  0.00    +0.001 A 
ATOM     20  C   UNL     1     -26.963  12.793   5.170  1.00  0.00    +0.112 A 
ENDBRANCH   1   3
TORSDOF 1
ENDMDL
MODEL 3
REMARK VINA RESULT:    -9.383      1.264      1.933
REMARK INTER + INTRA:          -9.657
REMARK INTER:                  -9.657
REMARK INTRA:                   0.000
REMARK UNBOUND:                 0.000
REMARK SMILES Oc1ccc2c(c1)c1ccccc1c1ncccc21
REMARK SMILES IDX 1 1 2 3 7 4 3 5 6 6 4 7 5 8 8 9 19 10 13 11 9 12 18 13 14 14
REMARK SMILES IDX 12 15 10 16 17 17 15 18 11 19 16 20
REMARK H PARENT 1 2
ROOT
ATOM      1  O   UNL     1     -32.998   6.226   8.808  1.00  0.00    -0.508 OA
ATOM      2  H   UNL     1     -33.124   6.343   9.763  1.00  0.00    +0.293 HD
ENDROOT
BRANCH   1   3
ATOM      3  C   UNL     1     -31.730   6.599   8.479  1.00  0.00    +0.116 A 
ATOM      4  C   UNL     1     -31.451   7.847   7.932  1.00  0.00    +0.055 A 
ATOM      5  C   UNL     1     -30.714   5.701   8.704  1.00  0.00    +0.047 A 
ATOM      6  C   UNL     1     -30.130   8.247   7.584  1.00  0.00    -0.006 A 
ATOM      7  C   UNL     1     -29.409   6.060   8.375  1.00  0.00    +0.013 A 
ATOM      8  C   UNL     1     -29.074   7.324   7.813  1.00  0.00    -0.008 A 
ATOM      9  C   UNL     1     -29.834   9.531   7.020  1.00  0.00    -0.008 A 
ATOM     10  C   UNL     1     -27.726   7.685   7.478  1.00  0.00    +0.009 A 
ATOM     11  C   UNL     1     -28.491   9.859   6.699  1.00  0.00    +0.009 A 
ATOM     12  C   UNL     1     -30.821  10.523   6.754  1.00  0.00    +0.009 A 
ATOM     13  C   UNL     1     -26.611   6.829   7.671  1.00  0.00    +0.012 A 
ATOM     14  C   UNL     1     -27.442   8.952   6.922  1.00  0.00    +0.079 A 
ATOM     15  C   UNL     1     -28.213  11.132   6.142  1.00  0.00    +0.011 A 
ATOM     16  C   UNL     1     -30.516  11.770   6.203  1.00  0.00    +0.001 A 
ATOM     17  C   UNL     1     -25.319   7.212   7.334  1.00  0.00    +0.021 A 
ATOM     18  N   UNL     1     -26.174   9.315   6.597  1.00  0.00    -0.256 NA
ATOM     19  C   UNL     1     -29.206  12.077   5.896  1.00  0.00    +0.001 A 
ATOM     20  C   UNL     1     -25.152   8.463   6.801  1.00  0.00    +0.112 A 
ENDBRANCH   1   3
TORSDOF 1
ENDMDL
MODEL 4
REMARK VINA RESULT:    -8.667      1.546      4.454
REMARK INTER + INTRA:          -8.921
REMARK INTER:                  -8.921
REMARK INTRA:                   0.000
REMARK UNBOUND:                 0.000
REMARK SMILES Oc1ccc2c(c1)c1ccccc1c1ncccc21
REMARK SMILES IDX 1 1 2 3 7 4 3 5 6 6 4 7 5 8 8 9 19 10 13 11 9 12 18 13 14 14
REMARK SMILES IDX 12 15 10 16 17 17 15 18 11 19 16 20
REMARK H PARENT 1 2
ROOT
ATOM      1  O   UNL     1     -33.093   6.964   8.127  1.00  0.00    -0.508 OA
ATOM      2  H   UNL     1     -33.143   6.739   9.069  1.00  0.00    +0.293 HD
ENDROOT
BRANCH   1   3
ATOM      3  C   UNL     1     -31.842   7.424   7.845  1.00  0.00    +0.116 A 
ATOM      4  C   UNL     1     -30.704   6.673   8.123  1.00  0.00    +0.055 A 
ATOM      5  C   UNL     1     -31.726   8.666   7.270  1.00  0.00    +0.047 A 
ATOM      6  C   UNL     1     -29.393   7.144   7.832  1.00  0.00    -0.006 A 
ATOM      7  C   UNL     1     -30.457   9.158   6.973  1.00  0.00    +0.013 A 
ATOM      8  C   UNL     1     -29.265   8.428   7.238  1.00  0.00    -0.008 A 
ATOM      9  C   UNL     1     -28.216   6.376   8.115  1.00  0.00    -0.008 A 
ATOM     10  C   UNL     1     -27.961   8.942   6.928  1.00  0.00    +0.009 A 
ATOM     11  C   UNL     1     -26.941   6.912   7.797  1.00  0.00    +0.009 A 
ATOM     12  C   UNL     1     -28.241   5.082   8.708  1.00  0.00    +0.009 A 
ATOM     13  C   UNL     1     -27.737  10.212   6.334  1.00  0.00    +0.012 A 
ATOM     14  C   UNL     1     -26.805   8.181   7.209  1.00  0.00    +0.079 A 
ATOM     15  C   UNL     1     -25.786   6.143   8.082  1.00  0.00    +0.011 A 
ATOM     16  C   UNL     1     -27.084   4.347   8.977  1.00  0.00    +0.001 A 
ATOM     17  C   UNL     1     -26.460  10.678   6.049  1.00  0.00    +0.021 A 
ATOM     18  N   UNL     1     -25.562   8.648   6.925  1.00  0.00    -0.256 NA
ATOM     19  C   UNL     1     -25.850   4.879   8.663  1.00  0.00    +0.001 A 
ATOM     20  C   UNL     1     -25.407   9.861   6.362  1.00  0.00    +0.112 A 
ENDBRANCH   1   3
TORSDOF 1
ENDMDL
