REMARK SMILES Nc1cccc(C(=O)Nc2ccc3c(O)cc(S(=O)(=O)O)cc3c2)c1
REMARK SMILES IDX 10 1 24 2 23 3 22 4 17 5 16 6 14 7 13 8 12 9 11 10 9 11 7 12
REMARK SMILES IDX 8 13 6 15 2 16 3 17 25 18 4 19 5 20 1 21 18 24 19 25 20 26
REMARK SMILES IDX 21 27 15 29
REMARK H PARENT 9 14 1 22 1 23 21 28 15 30
ROOT
ATOM      1  C   UNL     1       0.116  -0.189  -0.724  1.00  0.00    +0.042 A 
ATOM      2  C   UNL     1      -1.027   0.110   0.017  1.00  0.00    +0.035 A 
ATOM      3  C   UNL     1      -2.316  -0.171  -0.475  1.00  0.00    -0.011 A 
ATOM      4  C   UNL     1      -3.446   0.126   0.304  1.00  0.00    +0.032 A 
ATOM      5  C   UNL     1      -4.726  -0.164  -0.170  1.00  0.00    +0.098 A 
ATOM      6  C   UNL     1      -4.910  -0.725  -1.429  1.00  0.00    +0.069 A 
ATOM      7  C   UNL     1      -3.794  -1.007  -2.212  1.00  0.00    +0.124 A 
ATOM      8  C   UNL     1      -2.477  -0.759  -1.754  1.00  0.00    +0.024 A 
ATOM      9  C   UNL     1      -1.309  -1.073  -2.482  1.00  0.00    +0.015 A 
ATOM     10  C   UNL     1      -0.035  -0.791  -1.973  1.00  0.00    +0.027 A 
ENDROOT
BRANCH   1  11
ATOM     11  N   UNL     1       1.433   0.060  -0.282  1.00  0.00    -0.322 N 
ATOM     12  C   UNL     1       1.820   0.713   0.875  1.00  0.00    +0.255 C 
ATOM     13  O   UNL     1       1.087   1.260   1.690  1.00  0.00    -0.269 OA
ATOM     14  H   UNL     1       2.169  -0.213  -0.919  1.00  0.00    +0.170 HD
BRANCH  12  15
ATOM     15  C   UNL     1       3.293   0.780   1.094  1.00  0.00    +0.042 A 
ATOM     16  C   UNL     1       5.518  -0.189   0.945  1.00  0.00    +0.032 A 
ATOM     17  C   UNL     1       6.029   0.945   1.583  1.00  0.00    +0.025 A 
ATOM     18  C   UNL     1       4.137  -0.287   0.751  1.00  0.00    +0.039 A 
ATOM     19  C   UNL     1       5.194   2.004   1.944  1.00  0.00    +0.003 A 
ATOM     20  C   UNL     1       3.825   1.924   1.697  1.00  0.00    +0.014 A 
BRANCH  16  21
ATOM     21  N   UNL     1       6.342  -1.296   0.718  1.00  0.00    -0.399 N 
ATOM     22  H   UNL     1       6.009  -1.945   0.012  1.00  0.00    +0.156 HD
ATOM     23  H   UNL     1       7.326  -1.071   0.607  1.00  0.00    +0.156 HD
ENDBRANCH  16  21
ENDBRANCH  12  15
ENDBRANCH   1  11
BRANCH   5  24
ATOM     24  S   UNL     1      -6.139   0.227   0.814  1.00  0.00    +0.294 S 
ATOM     25  O   UNL     1      -7.193   0.692  -0.061  1.00  0.00    -0.194 OA
ATOM     26  O   UNL     1      -6.350  -0.860   1.743  1.00  0.00    -0.194 OA
BRANCH  24  27
ATOM     27  O   UNL     1      -5.700   1.501   1.702  1.00  0.00    -0.282 OA
ATOM     28  H   UNL     1      -6.375   1.626   2.403  1.00  0.00    +0.234 HD
ENDBRANCH  24  27
ENDBRANCH   5  24
BRANCH   7  29
ATOM     29  O   UNL     1      -4.068  -1.528  -3.449  1.00  0.00    -0.507 OA
ATOM     30  H   UNL     1      -3.321  -1.345  -4.039  1.00  0.00    +0.293 HD
ENDBRANCH   7  29
TORSDOF 6
