REMARK SMILES O=Cc1c(O)ccc2ccc3ccccc3c12
REMARK SMILES IDX 4 1 6 2 7 3 8 4 9 5 10 6 11 7 16 8 15 9 14 10 13 11 12 12
REMARK SMILES IDX 17 13 3 14 5 15 2 17 1 18
REMARK H PARENT 5 16
ROOT
ATOM      1  C   UNL     1      -2.927   0.042  -0.644  1.00  0.00    +0.126 A 
ATOM      2  C   UNL     1      -3.092  -1.327  -0.556  1.00  0.00    +0.047 A 
ATOM      3  C   UNL     1      -2.015  -2.112  -0.170  1.00  0.00    +0.012 A 
ATOM      4  C   UNL     1      -0.749  -1.552   0.065  1.00  0.00    -0.017 A 
ATOM      5  C   UNL     1       0.272  -2.409   0.478  1.00  0.00    +0.009 A 
ATOM      6  C   UNL     1       1.556  -1.935   0.714  1.00  0.00    +0.009 A 
ATOM      7  C   UNL     1       1.877  -0.603   0.467  1.00  0.00    -0.018 A 
ATOM      8  C   UNL     1       0.879   0.299   0.011  1.00  0.00    -0.010 A 
ATOM      9  C   UNL     1       1.355   1.588  -0.356  1.00  0.00    +0.009 A 
ATOM     10  C   UNL     1       2.685   1.988  -0.185  1.00  0.00    +0.001 A 
ATOM     11  C   UNL     1       3.610   1.103   0.338  1.00  0.00    +0.001 A 
ATOM     12  C   UNL     1       3.209  -0.191   0.649  1.00  0.00    +0.009 A 
ATOM     13  C   UNL     1      -0.505  -0.159  -0.103  1.00  0.00    +0.004 A 
ATOM     14  C   UNL     1      -1.675   0.628  -0.377  1.00  0.00    +0.065 A 
ENDROOT
BRANCH   1  15
ATOM     15  O   UNL     1      -4.049   0.760  -0.964  1.00  0.00    -0.507 OA
ATOM     16  H   UNL     1      -3.789   1.701  -1.088  1.00  0.00    +0.293 HD
ENDBRANCH   1  15
BRANCH  14  17
ATOM     17  C   UNL     1      -1.669   2.097  -0.218  1.00  0.00    +0.264 C 
ATOM     18  O   UNL     1      -2.466   2.807  -0.825  1.00  0.00    -0.298 OA
ENDBRANCH  14  17
TORSDOF 2
