REMARK SMILES CCc1nc(Nc2ccc(C)cc2)c2cnn(-c3ccccc3)c2n1
REMARK SMILES IDX 3 1 4 2 5 3 14 4 15 5 16 6 17 7 24 8 25 9 2 10 1 11 6 12
REMARK SMILES IDX 7 14 8 15 13 16 9 17 12 18 10 19 11 20 18 21 19 22 23 23
REMARK SMILES IDX 20 24 22 25 21 26
REMARK H PARENT 6 13
ROOT
ATOM      1  C   UNL     1      -1.155   2.255   0.877  1.00  0.00    +0.133 A 
ATOM      2  N   UNL     1       0.160   2.091   1.137  1.00  0.00    -0.215 NA
ATOM      3  C   UNL     1       0.725   0.875   0.962  1.00  0.00    +0.145 A 
ATOM      4  C   UNL     1      -0.097  -0.180   0.552  1.00  0.00    +0.082 A 
ATOM      5  C   UNL     1       0.032  -1.556   0.309  1.00  0.00    +0.150 A 
ATOM      6  N   UNL     1      -1.107  -2.125  -0.085  1.00  0.00    -0.174 NA
ATOM      7  N   UNL     1      -2.021  -1.104  -0.088  1.00  0.00    -0.215 N 
ATOM      8  C   UNL     1      -1.431   0.098   0.309  1.00  0.00    +0.168 A 
ATOM      9  N   UNL     1      -2.006   1.309   0.447  1.00  0.00    -0.213 NA
ENDROOT
BRANCH   1  10
ATOM     10  C   UNL     1      -1.712   3.643   1.052  1.00  0.00    +0.074 C 
ATOM     11  C   UNL     1      -1.613   4.441  -0.237  1.00  0.00    +0.012 C 
ENDBRANCH   1  10
BRANCH   3  12
ATOM     12  N   UNL     1       2.091   0.761   1.263  1.00  0.00    -0.340 N 
ATOM     13  H   UNL     1       2.407   1.690   1.536  1.00  0.00    +0.168 HD
BRANCH  12  14
ATOM     14  C   UNL     1       3.087   0.101   0.513  1.00  0.00    +0.040 A 
ATOM     15  C   UNL     1       4.279  -0.252   1.157  1.00  0.00    +0.026 A 
ATOM     16  C   UNL     1       2.976  -0.141  -0.860  1.00  0.00    +0.026 A 
ATOM     17  C   UNL     1       5.317  -0.876   0.458  1.00  0.00    +0.005 A 
ATOM     18  C   UNL     1       4.012  -0.765  -1.562  1.00  0.00    +0.005 A 
ATOM     19  C   UNL     1       5.184  -1.153  -0.905  1.00  0.00    -0.051 A 
ATOM     20  C   UNL     1       6.307  -1.793  -1.665  1.00  0.00    +0.044 C 
ENDBRANCH  12  14
ENDBRANCH   3  12
BRANCH   7  21
ATOM     21  C   UNL     1      -3.372  -1.372  -0.469  1.00  0.00    +0.067 A 
ATOM     22  C   UNL     1      -4.349  -0.369  -0.499  1.00  0.00    +0.028 A 
ATOM     23  C   UNL     1      -3.735  -2.683  -0.827  1.00  0.00    +0.028 A 
ATOM     24  C   UNL     1      -5.661  -0.673  -0.880  1.00  0.00    +0.002 A 
ATOM     25  C   UNL     1      -5.046  -2.980  -1.206  1.00  0.00    +0.002 A 
ATOM     26  C   UNL     1      -6.009  -1.976  -1.232  1.00  0.00    +0.000 A 
ENDBRANCH   7  21
TORSDOF 4
