REMARK SMILES O=[N+]([O-])c1cccc(C=Nc2ccccc2O)c1
REMARK SMILES IDX 10 1 9 2 11 3 16 4 15 5 12 6 14 7 13 8 17 9 8 11 18 12 7 13
REMARK SMILES IDX 4 14 6 15 5 16 2 17 1 18 3 19
REMARK H PARENT 17 10
ROOT
ATOM      1  N   UNL     1      -0.799   0.715   0.625  1.00  0.00    -0.252 NA
ATOM      2  C   UNL     1       0.067  -0.008  -0.009  1.00  0.00    +0.120 C 
ENDROOT
BRANCH   1   3
ATOM      3  C   UNL     1      -2.158   0.406   0.416  1.00  0.00    +0.105 A 
ATOM      4  C   UNL     1      -2.724  -0.851   0.696  1.00  0.00    +0.141 A 
ATOM      5  C   UNL     1      -4.086  -1.086   0.499  1.00  0.00    +0.048 A 
ATOM      6  C   UNL     1      -2.998   1.426  -0.042  1.00  0.00    +0.032 A 
ATOM      7  C   UNL     1      -4.904  -0.059   0.027  1.00  0.00    +0.004 A 
ATOM      8  C   UNL     1      -4.361   1.197  -0.241  1.00  0.00    +0.003 A 
BRANCH   4   9
ATOM      9  O   UNL     1      -1.925  -1.863   1.165  1.00  0.00    -0.506 OA
ATOM     10  H   UNL     1      -2.494  -2.583   1.479  1.00  0.00    +0.293 HD
ENDBRANCH   4   9
ENDBRANCH   1   3
BRANCH   2  11
ATOM     11  C   UNL     1       1.519   0.208   0.147  1.00  0.00    -0.000 A 
ATOM     12  C   UNL     1       2.402  -0.603  -0.569  1.00  0.00    +0.095 A 
ATOM     13  C   UNL     1       2.005   1.207   1.000  1.00  0.00    +0.010 A 
ATOM     14  C   UNL     1       3.781  -0.401  -0.421  1.00  0.00    +0.270 A 
ATOM     15  C   UNL     1       3.381   1.401   1.141  1.00  0.00    +0.008 A 
ATOM     16  C   UNL     1       4.275   0.598   0.431  1.00  0.00    +0.085 A 
BRANCH  14  17
ATOM     17  N   UNL     1       4.721  -1.247  -1.167  1.00  0.00    +0.062 N 
ATOM     18  O   UNL     1       5.933  -1.048  -1.004  1.00  0.00    -0.258 OA
ATOM     19  O   UNL     1       4.245  -2.111  -1.918  1.00  0.00    -0.258 OA
ENDBRANCH  14  17
ENDBRANCH   2  11
TORSDOF 4
