REMARK SMILES COC(=O)c1ccc2ccc3ccccc3c2c1
REMARK SMILES IDX 3 1 4 2 2 3 1 4 5 5 18 6 6 7 17 8 7 9 16 10 8 11 15 12 11 13
REMARK SMILES IDX 9 14 14 15 12 16 10 17 13 18
REMARK H PARENT
ROOT
ATOM      1  C   UNL     1      -3.121  -0.253   1.030  1.00  0.00    +0.337 C 
ATOM      2  O   UNL     1      -2.971  -0.425   2.230  1.00  0.00    -0.246 OA
ENDROOT
BRANCH   1   3
ATOM      3  O   UNL     1      -4.312  -0.165   0.386  1.00  0.00    -0.465 OA
ATOM      4  C   UNL     1      -5.446  -0.294   1.244  1.00  0.00    +0.282 C 
ENDBRANCH   1   3
BRANCH   1   5
ATOM      5  C   UNL     1      -1.991  -0.109   0.071  1.00  0.00    +0.060 A 
ATOM      6  C   UNL     1      -0.681  -0.176   0.574  1.00  0.00    +0.025 A 
ATOM      7  C   UNL     1      -2.189   0.087  -1.294  1.00  0.00    +0.016 A 
ATOM      8  C   UNL     1       0.461  -0.051  -0.257  1.00  0.00    -0.010 A 
ATOM      9  C   UNL     1      -1.089   0.214  -2.140  1.00  0.00    +0.009 A 
ATOM     10  C   UNL     1       1.819  -0.114   0.220  1.00  0.00    -0.011 A 
ATOM     11  C   UNL     1       0.223   0.147  -1.641  1.00  0.00    -0.018 A 
ATOM     12  C   UNL     1       2.180  -0.309   1.578  1.00  0.00    +0.009 A 
ATOM     13  C   UNL     1       2.885   0.024  -0.706  1.00  0.00    -0.018 A 
ATOM     14  C   UNL     1       1.298   0.279  -2.523  1.00  0.00    +0.009 A 
ATOM     15  C   UNL     1       3.514  -0.363   1.996  1.00  0.00    +0.001 A 
ATOM     16  C   UNL     1       4.221  -0.033  -0.274  1.00  0.00    +0.009 A 
ATOM     17  C   UNL     1       2.610   0.218  -2.062  1.00  0.00    +0.009 A 
ATOM     18  C   UNL     1       4.535  -0.225   1.069  1.00  0.00    +0.001 A 
ENDBRANCH   1   5
TORSDOF 2
